 vasp.6.4.2 20Jul23 (build Feb 15 2024 17:04:42) complex                        
  
 executed on             LinuxIFC date 2024.05.16  13:28:57
 running   64 mpi-ranks, with    1 threads/rank, on    1 nodes
 distrk:  each k-point on   64 cores,    1 groups
 distr:  one band on NCORE=   1 cores,   64 groups


--------------------------------------------------------------------------------------------------------


 INCAR:
   ISTART = 1            (Read existing wavefunction, if there)
   ISPIN = 2            (Non-Spin polarised DFT)
   LREAL = .FALSE.       (Projection operators: automatic)
   LWAVE = .TRUE.        (Write WAVECAR or not)
   LCHARG = .TRUE.        (Write CHGCAR or not)
   ADDGRID = .TRUE.        (Increase grid, helps GGA convergence)
   LASPH = .TRUE.        (Give more accurate total energies and band structure calculations)
   ENCUT = 520
   ISMEAR = 0            (Gaussian smearing, metals:1)
   SIGMA = 0.05         (Smearing value in eV, metals:0.2)
   NELM = 1000           (Max electronic SCF steps)
   NELMIN = 6            (Min electronic SCF steps)
   EDIFF = 2E-06        (SCF energy convergence, in eV)
   NSW = 10000          (Max ionic steps)
   IBRION = 2            (Algorithm: 0-MD, 1-Quasi-New, 2-CG)
   ISIF = 3            (Stress/relaxation: 2-Ions, 3-Shape/Ions/V, 4-Shape/Ions)
   EDIFFG = -0.01        (Ionic convergence, eV/AA)
   ISYM = 0            (Symmetry: 0\=none, 2\=GGA, 3\=hybrids)
   SYMPREC = 1e-4
   ALGO = N

 POTCAR:    PAW_PBE Ni 02Aug2007                  
 POTCAR:    PAW_PBE S 06Sep2000                   
 -----------------------------------------------------------------------------
|                                                                             |
|           W    W    AA    RRRRR   N    N  II  N    N   GGGG   !!!           |
|           W    W   A  A   R    R  NN   N  II  NN   N  G    G  !!!           |
|           W    W  A    A  R    R  N N  N  II  N N  N  G       !!!           |
|           W WW W  AAAAAA  RRRRR   N  N N  II  N  N N  G  GGG   !            |
|           WW  WW  A    A  R   R   N   NN  II  N   NN  G    G                |
|           W    W  A    A  R    R  N    N  II  N    N   GGGG   !!!           |
|                                                                             |
|     You use a magnetic or noncollinear calculation, but did not specify     |
|     the initial magnetic moment with the MAGMOM tag. Note that a            |
|     default of 1 will be used for all atoms. This ferromagnetic setup       |
|     may break the symmetry of the crystal, in particular it may rule        |
|     out finding an antiferromagnetic solution. Thence, we recommend         |
|     setting the initial magnetic moment manually or verifying carefully     |
|     that this magnetic setup is desired.                                    |
|                                                                             |
 -----------------------------------------------------------------------------

 POTCAR:    PAW_PBE Ni 02Aug2007                  
   SHA256 =  0534bc51ca8003dfef23f56753fef9fdd3e22eac8d719fccacb59f3e6b7a69c7 Ni/POTCAR             
   COPYR  = (c) Copyright 02Aug2007 Georg Kresse                                                    
   COPYR  = This file is part of the software VASP. Any use, copying, and all other rights are regul
   COPYR  = If you do not have a valid VASP license, you may not use, copy or distribute this file. 
   VRHFIN =Ni:                                                                                      
   LEXCH  = PE                                                                                      
   EATOM  =  1077.6739 eV,   79.2068 Ry                                                             
                                                                                                    
   TITEL  = PAW_PBE Ni 02Aug2007                                                                    
   LULTRA =        F    use ultrasoft PP ?                                                          
   IUNSCR =        1    unscreen: 0-lin 1-nonlin 2-no                                               
   RPACOR =    2.000    partial core radius                                                         
   POMASS =   58.690; ZVAL   =   10.000    mass and valenz                                          
   RCORE  =    2.300    outmost cutoff radius                                                       
   RWIGS  =    2.430; RWIGS  =    1.286    wigner-seitz radius (au A)                               
   ENMAX  =  269.532; ENMIN  =  202.149 eV                                                          
   RCLOC  =    1.201    cutoff for local pot                                                        
   LCOR   =        T    correct aug charges                                                         
   LPAW   =        T    paw PP                                                                      
   EAUG   =  544.565                                                                                
   DEXC   =    0.000                                                                                
   RMAX   =    2.357    core radius for proj-oper                                                   
   RAUG   =    1.300    factor for augmentation sphere                                              
   RDEP   =    2.390    radius for radial grids                                                     
   RDEPT  =    1.838    core radius for aug-charge                                                  
                                                                                                    
   Atomic configuration                                                                             
    9 entries                                                                                       
     n  l   j            E        occ.                                                              
     1  0  0.50     -8206.4253   2.0000                                                             
     2  0  0.50      -976.1748   2.0000                                                             
     2  1  1.50      -839.0571   6.0000                                                             
     3  0  0.50      -105.9991   2.0000                                                             
     3  1  1.50       -66.4603   6.0000                                                             
     3  2  2.50        -4.6458   9.0000                                                             
     4  0  0.50        -4.4926   1.0000                                                             
     4  1  1.50        -4.0817   0.0000                                                             
     4  3  2.50        -1.3606   0.0000                                                             
   Description                                                                                      
     l       E           TYP  RCUT    TYP  RCUT                                                     
     2     -4.6457903     23  2.300                                                                 
     2     -6.0063729     23  2.300                                                                 
     0     -4.4925590     23  2.300                                                                 
     0      5.0102601     23  2.300                                                                 
     1     -2.7211652     23  2.300                                                                 
     1     16.5183231     23  2.300                                                                 
  local pseudopotential read in
  partial core-charges read in
  partial kinetic energy density read in
  atomic valenz-charges read in
  non local Contribution for L=           2  read in
    real space projection operators read in
  non local Contribution for L=           2  read in
    real space projection operators read in
  non local Contribution for L=           0  read in
    real space projection operators read in
  non local Contribution for L=           0  read in
    real space projection operators read in
  non local Contribution for L=           1  read in
    real space projection operators read in
  non local Contribution for L=           1  read in
    real space projection operators read in
    PAW grid and wavefunctions read in
 
   number of l-projection  operators is LMAX  =           6
   number of lm-projection operators is LMMAX =          18
 
 POTCAR:    PAW_PBE S 06Sep2000                   
   SHA256 =  0fc7481fb0695f01bdc6462160264c5c84044ae9ec85a907d398b887a2bc3132 S/POTCAR              
   COPYR  = (c) Copyright 06Sep2000 Georg Kresse                                                    
   COPYR  = This file is part of the software VASP. Any use, copying, and all other rights are regul
   COPYR  = If you do not have a valid VASP license, you may not use, copy or distribute this file. 
   VRHFIN =S : s2p4                                                                                 
   LEXCH  = PE                                                                                      
   EATOM  =   276.8230 eV,   20.3459 Ry                                                             
                                                                                                    
   TITEL  = PAW_PBE S 06Sep2000                                                                     
   LULTRA =        F    use ultrasoft PP ?                                                          
   IUNSCR =        1    unscreen: 0-lin 1-nonlin 2-no                                               
   RPACOR =    1.500    partial core radius                                                         
   POMASS =   32.066; ZVAL   =    6.000    mass and valenz                                          
   RCORE  =    1.900    outmost cutoff radius                                                       
   RWIGS  =    2.200; RWIGS  =    1.164    wigner-seitz radius (au A)                               
   ENMAX  =  258.689; ENMIN  =  194.016 eV                                                          
   ICORE  =        2    local potential                                                             
   LCOR   =        T    correct aug charges                                                         
   LPAW   =        T    paw PP                                                                      
   EAUG   =  335.092                                                                                
   DEXC   =    0.000                                                                                
   RMAX   =    1.942    core radius for proj-oper                                                   
   RAUG   =    1.300    factor for augmentation sphere                                              
   RDEP   =    1.954    radius for radial grids                                                     
   RDEPT  =    1.744    core radius for aug-charge                                                  
                                                                                                    
   Atomic configuration                                                                             
    6 entries                                                                                       
     n  l   j            E        occ.                                                              
     1  0  0.50     -2405.8406   2.0000                                                             
     2  0  0.50      -211.7007   2.0000                                                             
     2  1  1.50      -156.4958   6.0000                                                             
     3  0  0.50       -17.2562   2.0000                                                             
     3  1  0.50        -7.0085   4.0000                                                             
     3  2  1.50        -6.8029   0.0000                                                             
   Description                                                                                      
     l       E           TYP  RCUT    TYP  RCUT                                                     
     0    -17.2561641     23  1.900                                                                 
     0    -15.8743224     23  1.900                                                                 
     1     -7.0085400     23  1.900                                                                 
     1     -2.7779785     23  1.900                                                                 
     2     -6.8029130     23  1.900                                                                 
  local pseudopotential read in
  partial core-charges read in
  partial kinetic energy density read in
  atomic valenz-charges read in
  non local Contribution for L=           0  read in
    real space projection operators read in
  non local Contribution for L=           0  read in
    real space projection operators read in
  non local Contribution for L=           1  read in
    real space projection operators read in
  non local Contribution for L=           1  read in
    real space projection operators read in
    PAW grid and wavefunctions read in
 
   number of l-projection  operators is LMAX  =           4
   number of lm-projection operators is LMMAX =           8
 
  PAW_PBE Ni 02Aug2007                  :
 energy of atom  1       EATOM=-1077.6739
 kinetic energy error for atom=    0.0030 (will be added to EATOM!!)
  PAW_PBE S 06Sep2000                   :
 energy of atom  2       EATOM= -276.8230
 kinetic energy error for atom=    0.0016 (will be added to EATOM!!)
 
 
 POSCAR: Ni9 S6
  positions in direct lattice
  velocities in cartesian coordinates
 exchange correlation table for  LEXCH =        8
   RHO(1)=    0.500       N(1)  =     2000
   RHO(2)=  100.500       N(2)  =     4000

 VTST: version 4.1, (05/19/21)

 CHAIN: initializing optimizer
 
 OPT: Using VASP Conjugate-Gradient optimizer
 CHAIN: Read ICHAIN            0
 
 POSCAR: Ni9 S6
  positions in direct lattice
  velocities in cartesian coordinates
 


--------------------------------------------------------------------------------------------------------


 ion  position               nearest neighbor table
   1  0.411  0.333  0.833-  12 2.25  15 2.25  11 2.28  10 2.28   5 2.49   9 2.49   3 2.53   2 2.53

   2  0.667  0.078  0.833-  12 2.25  15 2.25  11 2.28  10 2.28   6 2.49   7 2.49   1 2.53   3 2.53

   3  0.922  0.589  0.833-  12 2.25  15 2.25  11 2.28  10 2.28   4 2.49   8 2.49   1 2.53   2 2.53

   4  0.078  0.667  0.167-  11 2.25  14 2.25  12 2.28  13 2.28   3 2.49   8 2.49   5 2.53   6 2.53

   5  0.333  0.411  0.167-  11 2.25  14 2.25  12 2.28  13 2.28   1 2.49   9 2.49   4 2.53   6 2.53

   6  0.589  0.922  0.167-  11 2.25  14 2.25  12 2.28  13 2.28   2 2.49   7 2.49   5 2.53   4 2.53

   7  0.745  0.000  0.500-  13 2.25  10 2.25  14 2.28  15 2.28   2 2.49   6 2.49   8 2.53   9 2.53

   8  0.000  0.745  0.500-  10 2.25  13 2.25  14 2.28  15 2.28   3 2.49   4 2.49   7 2.53   9 2.53

   9  0.255  0.255  0.500-  13 2.25  10 2.25  14 2.28  15 2.28   1 2.49   5 2.49   8 2.53   7 2.53

  10  0.667  0.333  0.587-   9 2.25   8 2.25   7 2.25   1 2.28   3 2.28   2 2.28
  11  0.667  0.333  0.080-   5 2.25   4 2.25   6 2.25   1 2.28   3 2.28   2 2.28
  12  0.333  0.667  0.920-   1 2.25   2 2.25   3 2.25   5 2.28   6 2.28   4 2.28
  13  0.333  0.667  0.413-   9 2.25   7 2.25   8 2.25   5 2.28   6 2.28   4 2.28
  14  0.000  0.000  0.254-   4 2.25   6 2.25   5 2.25   7 2.28   8 2.28   9 2.28
  15  0.000  0.000  0.746-   2 2.25   3 2.25   1 2.25   7 2.28   8 2.28   9 2.28
 

IMPORTANT INFORMATION: All symmetrisations will be switched off!
NOSYMM: (Re-)initialisation of all symmetry stuff for point group C_1.


----------------------------------------------------------------------------------------

                                     Primitive cell                                     

  volume of cell :     200.2048

  direct lattice vectors                    reciprocal lattice vectors
     2.854697564 -4.944481221  0.000000000     0.175149902 -0.101122843  0.000000000
     2.854697564  4.944481221  0.000000000     0.175149902  0.101122843  0.000000000
     0.000000000  0.000000000  7.091918242     0.000000000  0.000000000  0.141005574

  length of vectors
     5.709395128  5.709395128  7.091918242     0.202245687  0.202245687  0.141005574

  position of ions in fractional coordinates (direct lattice)
     0.411235932  0.333333333  0.833333333
     0.666666667  0.077902598  0.833333333
     0.922097402  0.588764068  0.833333333
     0.077902598  0.666666667  0.166666667
     0.333333333  0.411235932  0.166666667
     0.588764068  0.922097402  0.166666667
     0.744569265  0.000000000  0.500000000
     0.000000000  0.744569265  0.500000000
     0.255430735  0.255430735  0.500000000
     0.666666667  0.333333333  0.586938915
     0.666666667  0.333333333  0.079727751
     0.333333333  0.666666667  0.920272249
     0.333333333  0.666666667  0.413061085
     0.000000000  0.000000000  0.253605582
     0.000000000  0.000000000  0.746394418

  ion indices of the primitive-cell ions
   primitive index   ion index
                 1           1
                 2           2
                 3           3
                 4           4
                 5           5
                 6           6
                 7           7
                 8           8
                 9           9
                10          10
                11          11
                12          12
                13          13
                14          14
                15          15

----------------------------------------------------------------------------------------

 
 
 KPOINTS: egular 4 x 4 x 4 mesh centered at Gamma 

Automatic generation of k-mesh.
 Grid dimensions read from file:
 generate k-points for:    4    3    3

 Generating k-lattice:

  Cartesian coordinates                     Fractional coordinates (reciprocal lattice)
     0.043787476 -0.025280711  0.000000000     0.250000000  0.000000000  0.000000000
     0.058383301  0.033707614  0.000000000    -0.000000000  0.333333333  0.000000000
     0.000000000  0.000000000  0.047001858     0.000000000  0.000000000  0.333333333

  Length of vectors
     0.050561422  0.067415229  0.047001858

  Shift w.r.t. Gamma in fractional coordinates (k-lattice)
     0.000000000  0.000000000  0.000000000

 -----------------------------------------------------------------------------
|                                                                             |
|           W    W    AA    RRRRR   N    N  II  N    N   GGGG   !!!           |
|           W    W   A  A   R    R  NN   N  II  NN   N  G    G  !!!           |
|           W    W  A    A  R    R  N N  N  II  N N  N  G       !!!           |
|           W WW W  AAAAAA  RRRRR   N  N N  II  N  N N  G  GGG   !            |
|           WW  WW  A    A  R   R   N   NN  II  N   NN  G    G                |
|           W    W  A    A  R    R  N    N  II  N    N   GGGG   !!!           |
|                                                                             |
|     Your reciprocal lattice and k-lattice belong to different lattice       |
|     classes:                                                                |
|                                                                             |
|        The reciprocal lattice is hexagonal,                                 |
|        whereas your k-lattice is simple monoclinic.                         |
|                                                                             |
|     Results are often still useful ...                                      |
|                                                                             |
 -----------------------------------------------------------------------------

 WARNING: IBZKPT: internal override: KBLOWUP is changed to .FALSE.
      ... skipping the blow-up phase ...

 
 Subroutine IBZKPT returns following result:
 ===========================================
 
 Found     19 irreducible k-points:
 
 Following reciprocal coordinates:
            Coordinates               Weight
  0.000000  0.000000  0.000000      1.000000
  0.250000  0.000000  0.000000      2.000000
  0.500000  0.000000  0.000000      1.000000
 -0.000000  0.333333  0.000000      2.000000
  0.250000  0.333333  0.000000      2.000000
  0.500000  0.333333  0.000000      2.000000
 -0.250000  0.333333  0.000000      2.000000
  0.000000  0.000000  0.333333      2.000000
  0.250000  0.000000  0.333333      2.000000
  0.500000  0.000000  0.333333      2.000000
 -0.250000 -0.000000  0.333333      2.000000
 -0.000000  0.333333  0.333333      2.000000
  0.250000  0.333333  0.333333      2.000000
  0.500000  0.333333  0.333333      2.000000
 -0.250000  0.333333  0.333333      2.000000
  0.000000 -0.333333  0.333333      2.000000
  0.250000 -0.333333  0.333333      2.000000
  0.500000 -0.333333  0.333333      2.000000
 -0.250000 -0.333333  0.333333      2.000000
 
 Following cartesian coordinates:
            Coordinates               Weight
  0.000000  0.000000  0.000000      1.000000
  0.043787 -0.025281  0.000000      2.000000
  0.087575 -0.050561  0.000000      1.000000
  0.058383  0.033708  0.000000      2.000000
  0.102171  0.008427  0.000000      2.000000
  0.145958 -0.016854  0.000000      2.000000
  0.014596  0.058988  0.000000      2.000000
  0.000000  0.000000  0.047002      2.000000
  0.043787 -0.025281  0.047002      2.000000
  0.087575 -0.050561  0.047002      2.000000
 -0.043787  0.025281  0.047002      2.000000
  0.058383  0.033708  0.047002      2.000000
  0.102171  0.008427  0.047002      2.000000
  0.145958 -0.016854  0.047002      2.000000
  0.014596  0.058988  0.047002      2.000000
 -0.058383 -0.033708  0.047002      2.000000
 -0.014596 -0.058988  0.047002      2.000000
  0.029192 -0.084269  0.047002      2.000000
 -0.102171 -0.008427  0.047002      2.000000
 


--------------------------------------------------------------------------------------------------------




 Dimension of arrays:
   k-points           NKPTS =     19   k-points in BZ     NKDIM =     19   number of bands    NBANDS=    128
   number of dos      NEDOS =    301   number of ions     NIONS =     15
   non local maximal  LDIM  =      6   non local SUM 2l+1 LMDIM =     18
   total plane-waves  NPLWV =  40960
   max r-space proj   IRMAX =      1   max aug-charges    IRDMAX=  53247
   dimension x,y,z NGX =    32 NGY =   32 NGZ =   40
   dimension x,y,z NGXF=    64 NGYF=   64 NGZF=   80
   support grid    NGXF=   128 NGYF=  128 NGZF=  160
   ions per type =               9   6
   NGX,Y,Z   is equivalent  to a cutoff of   9.32,  9.32,  9.38 a.u.
   NGXF,Y,Z  is equivalent  to a cutoff of  18.64, 18.64, 18.75 a.u.

 SYSTEM =  unknown system                          
 POSCAR =  Ni9 S6                                  

 Startparameter for this run:
   NWRITE =      2    write-flag & timer
   PREC   = normal    normal or accurate (medium, high low for compatibility)
   ISTART =      0    job   : 0-new  1-cont  2-samecut
   ICHARG =      2    charge: 1-file 2-atom 10-const
   ISPIN  =      2    spin polarized calculation?
   LNONCOLLINEAR =      F non collinear calculations
   LSORBIT =      F    spin-orbit coupling
   INIWAV =      1    electr: 0-lowe 1-rand  2-diag
   LASPH  =      T    aspherical Exc in radial PAW
 Electronic Relaxation 1
   ENCUT  =  520.0 eV  38.22 Ry    6.18 a.u.  10.62 10.62 13.19*2*pi/ulx,y,z
   ENINI  =  520.0     initial cutoff
   ENAUG  =  544.6 eV  augmentation charge cutoff
   NELM   =   1000;   NELMIN=  6; NELMDL=  0     # of ELM steps 
   EDIFF  = 0.2E-05   stopping-criterion for ELM
   LREAL  =      F    real-space projection
   NLSPLINE    = F    spline interpolate recip. space projectors
   LCOMPAT=      F    compatible to vasp.4.4
   GGA_COMPAT  = T    GGA compatible to vasp.4.4-vasp.4.6
   LMAXPAW     = -100 max onsite density
   LMAXMIX     =    2 max onsite mixed and CHGCAR
   VOSKOWN=      0    Vosko Wilk Nusair interpolation
   ROPT   =    0.00000   0.00000
 Ionic relaxation
   EDIFFG = -.1E-01   stopping-criterion for IOM
   NSW    =  10000    number of steps for IOM
   NBLOCK =      1;   KBLOCK =  10000    inner block; outer block 
   IBRION =      2    ionic relax: 0-MD 1-quasi-New 2-CG
   NFREE  =      1    steps in history (QN), initial steepest desc. (CG)
   ISIF   =      3    stress and relaxation
   IWAVPR =     11    prediction:  0-non 1-charg 2-wave 3-comb
   ISYM   =      0    0-nonsym 1-usesym 2-fastsym
   LCORR  =      T    Harris-Foulkes like correction to forces

   POTIM  = 0.5000    time-step for ionic-motion
   TEIN   =    0.0    initial temperature
   TEBEG  =    0.0;   TEEND  =   0.0 temperature during run
   SMASS  =  -3.00    Nose mass-parameter (am)
   estimated Nose-frequenzy (Omega)   =  0.10E-29 period in steps = 0.13E+47 mass=  -0.745E-27a.u.
   SCALEE = 1.0000    scale energy and forces
   NPACO  =    256;   APACO  = 10.0  distance and # of slots for P.C.
   PSTRESS=    0.0 pullay stress

  Mass of Ions in am
   POMASS =  58.69 32.07
  Ionic Valenz
   ZVAL   =  10.00  6.00
  Atomic Wigner-Seitz radii
   RWIGS  =  -1.00 -1.00
  virtual crystal weights 
   VCA    =   1.00  1.00
   NELECT =     126.0000    total number of electrons
   NUPDOWN=      -1.0000    fix difference up-down

 DOS related values:
   EMIN   =  10.00;   EMAX   =-10.00  energy-range for DOS
   EFERMI =   0.00;   METHOD = LEGACY      
   ISMEAR =     0;   SIGMA  =   0.05  broadening in eV -4-tet -1-fermi 0-gaus

 Electronic relaxation 2 (details)
   IALGO  =     38    algorithm
   LDIAG  =      T    sub-space diagonalisation (order eigenvalues)
   LSUBROT=      F    optimize rotation matrix (better conditioning)
   TURBO    =      0    0=normal 1=particle mesh
   IRESTART =      0    0=no restart 2=restart with 2 vectors
   NREBOOT  =      0    no. of reboots
   NMIN     =      0    reboot dimension
   EREF     =   0.00    reference energy to select bands
   IMIX   =      4    mixing-type and parameters
     AMIX     =   0.40;   BMIX     =  1.00
     AMIX_MAG =   1.60;   BMIX_MAG =  1.00
     AMIN     =   0.10
     WC   =   100.;   INIMIX=   1;  MIXPRE=   1;  MAXMIX= -45

 Intra band minimization:
   WEIMIN = 0.0010     energy-eigenvalue tresh-hold
   EBREAK =  0.39E-08  absolut break condition
   DEPER  =   0.30     relativ break condition  

   TIME   =   0.40     timestep for ELM

  volume/ion in A,a.u.               =      13.35        90.07
  Fermi-wavevector in a.u.,A,eV,Ry     =   1.402943  2.651179 26.779671  1.968250
  Thomas-Fermi vector in A             =   2.525655
 
 Write flags
   LWAVE        =      T    write WAVECAR
   LDOWNSAMPLE  =      F    k-point downsampling of WAVECAR
   LCHARG       =      T    write CHGCAR
   LVTOT        =      F    write LOCPOT, total local potential
   LVHAR        =      F    write LOCPOT, Hartree potential only
   LELF         =      F    write electronic localiz. function (ELF)
   LORBIT       =      0    0 simple, 1 ext, 2 COOP (PROOUT), +10 PAW based schemes


 Dipole corrections
   LMONO  =      F    monopole corrections only (constant potential shift)
   LDIPOL =      F    correct potential (dipole corrections)
   IDIPOL =      0    1-x, 2-y, 3-z, 4-all directions 
   EPSILON=  1.0000000 bulk dielectric constant

 Exchange correlation treatment:
   GGA     =    --    GGA type
   LEXCH   =     8    internal setting for exchange type
   LIBXC   =     F    Libxc                    
   VOSKOWN =     0    Vosko Wilk Nusair interpolation
   LHFCALC =     F    Hartree Fock is set to
   LHFONE  =     F    Hartree Fock one center treatment
   AEXX    =    0.0000 exact exchange contribution

 Linear response parameters
   LEPSILON=     F    determine dielectric tensor
   LRPA    =     F    only Hartree local field effects (RPA)
   LNABLA  =     F    use nabla operator in PAW spheres
   LVEL    =     F    velocity operator in full k-point grid
   CSHIFT  =0.1000    complex shift for real part using Kramers Kronig
   OMEGAMAX=  -1.0    maximum frequency
   DEG_THRESHOLD= 0.2000000E-02 threshold for treating states as degnerate
   RTIME   =   -0.100 relaxation time in fs
  (WPLASMAI=    0.000 imaginary part of plasma frequency in eV, 0.658/RTIME)
   DFIELD  = 0.0000000 0.0000000 0.0000000 field for delta impulse in time
 
  Optional k-point grid parameters
   LKPOINTS_OPT  =     F    use optional k-point grid
   KPOINTS_OPT_MODE=     1    mode for optional k-point grid
 
 Orbital magnetization related:
   ORBITALMAG=     F  switch on orbital magnetization
   LCHIMAG   =     F  perturbation theory with respect to B field
   DQ        =  0.001000  dq finite difference perturbation B field
   LLRAUG    =     F  two centre corrections for induced B field
   LBONE     =     F  B-component reconstruction in AE one-centre
   LVGVCALC  =     T  calculate vGv susceptibility
   LVGVAPPL  =     F  apply vGv susceptibility instead of pGv for G=0

 Random number generation:
   RANDOM_GENERATOR = DEFAULT
   PCG_SEED         = not used


--------------------------------------------------------------------------------------------------------


 conjugate gradient relaxation of ions
 charge density and potential will be updated during run
 spin polarized calculation
 Variant of blocked Davidson
 Davidson routine will perform the subspace rotation
 perform sub-space diagonalisation
    after iterative eigenvector-optimisation
 modified Broyden-mixing scheme, WC =      100.0
 initial mixing is a Kerker type mixing with AMIX =  0.4000 and BMIX =      1.0000
 Hartree-type preconditioning will be used
 using additional bands           65
 reciprocal scheme for non local part
 use partial core corrections
 calculate Harris-corrections to forces 
   (improved forces if not selfconsistent)
 use gradient corrections 
 use of overlap-Matrix (Vanderbilt PP)
 Gauss-broadening in eV      SIGMA  =   0.05


--------------------------------------------------------------------------------------------------------


  energy-cutoff  :      520.00
  volume of cell :      200.20
      direct lattice vectors                 reciprocal lattice vectors
     2.854697564 -4.944481221  0.000000000     0.175149902 -0.101122843  0.000000000
     2.854697564  4.944481221  0.000000000     0.175149902  0.101122843  0.000000000
     0.000000000  0.000000000  7.091918242     0.000000000  0.000000000  0.141005574

  length of vectors
     5.709395128  5.709395128  7.091918242     0.202245687  0.202245687  0.141005574


 
 k-points in units of 2pi/SCALE and weight: egular 4 x 4 x 4 mesh centered at Gamma 
   0.00000000  0.00000000  0.00000000       0.028
   0.04378748 -0.02528071  0.00000000       0.056
   0.08757495 -0.05056142  0.00000000       0.028
   0.05838330  0.03370761  0.00000000       0.056
   0.10217078  0.00842690  0.00000000       0.056
   0.14595825 -0.01685381  0.00000000       0.056
   0.01459583  0.05898833  0.00000000       0.056
   0.00000000  0.00000000  0.04700186       0.056
   0.04378748 -0.02528071  0.04700186       0.056
   0.08757495 -0.05056142  0.04700186       0.056
  -0.04378748  0.02528071  0.04700186       0.056
   0.05838330  0.03370761  0.04700186       0.056
   0.10217078  0.00842690  0.04700186       0.056
   0.14595825 -0.01685381  0.04700186       0.056
   0.01459583  0.05898833  0.04700186       0.056
  -0.05838330 -0.03370761  0.04700186       0.056
  -0.01459583 -0.05898833  0.04700186       0.056
   0.02919165 -0.08426904  0.04700186       0.056
  -0.10217078 -0.00842690  0.04700186       0.056
 
 k-points in reciprocal lattice and weights: egular 4 x 4 x 4 mesh centered at Gamma 
   0.00000000  0.00000000  0.00000000       0.028
   0.25000000  0.00000000  0.00000000       0.056
   0.50000000  0.00000000  0.00000000       0.028
  -0.00000000  0.33333333  0.00000000       0.056
   0.25000000  0.33333333  0.00000000       0.056
   0.50000000  0.33333333  0.00000000       0.056
  -0.25000000  0.33333333  0.00000000       0.056
   0.00000000  0.00000000  0.33333333       0.056
   0.25000000  0.00000000  0.33333333       0.056
   0.50000000  0.00000000  0.33333333       0.056
  -0.25000000 -0.00000000  0.33333333       0.056
  -0.00000000  0.33333333  0.33333333       0.056
   0.25000000  0.33333333  0.33333333       0.056
   0.50000000  0.33333333  0.33333333       0.056
  -0.25000000  0.33333333  0.33333333       0.056
   0.00000000 -0.33333333  0.33333333       0.056
   0.25000000 -0.33333333  0.33333333       0.056
   0.50000000 -0.33333333  0.33333333       0.056
  -0.25000000 -0.33333333  0.33333333       0.056
 
 position of ions in fractional coordinates (direct lattice) 
   0.41123593  0.33333333  0.83333333
   0.66666667  0.07790260  0.83333333
   0.92209740  0.58876407  0.83333333
   0.07790260  0.66666667  0.16666667
   0.33333333  0.41123593  0.16666667
   0.58876407  0.92209740  0.16666667
   0.74456926  0.00000000  0.50000000
   0.00000000  0.74456926  0.50000000
   0.25543074  0.25543074  0.50000000
   0.66666667  0.33333333  0.58693892
   0.66666667  0.33333333  0.07972775
   0.33333333  0.66666667  0.92027225
   0.33333333  0.66666667  0.41306108
   0.00000000  0.00000000  0.25360558
   0.00000000  0.00000000  0.74639442
 
 position of ions in cartesian coordinates  (Angst):
   2.12552007 -0.38518793  5.90993187
   2.12552007 -2.91113288  5.90993187
   4.31305256 -1.64816041  5.90993187
   2.12552007  2.91113288  1.18198637
   2.12552007  0.38518793  1.18198637
   4.31305256  1.64816041  1.18198637
   2.12552007 -3.68150875  3.54595912
   2.12552007  3.68150875  3.54595912
   1.45835499  0.00000000  3.54595912
   2.85469756 -1.64816041  4.16252280
   2.85469756 -1.64816041  0.56542269
   2.85469756  1.64816041  6.52649555
   2.85469756  1.64816041  2.92939544
   0.00000000  0.00000000  1.79855005
   0.00000000  0.00000000  5.29336819
 


--------------------------------------------------------------------------------------------------------


 k-point   1 :   0.0000 0.0000 0.0000  plane waves:    5403
 k-point   2 :   0.2500 0.0000 0.0000  plane waves:    5414
 k-point   3 :   0.5000 0.0000 0.0000  plane waves:    5352
 k-point   4 :  -0.0000 0.3333 0.0000  plane waves:    5376
 k-point   5 :   0.2500 0.3333 0.0000  plane waves:    5397
 k-point   6 :   0.5000 0.3333 0.0000  plane waves:    5382
 k-point   7 :  -0.2500 0.3333 0.0000  plane waves:    5399
 k-point   8 :   0.0000 0.0000 0.3333  plane waves:    5414
 k-point   9 :   0.2500 0.0000 0.3333  plane waves:    5390
 k-point  10 :   0.5000 0.0000 0.3333  plane waves:    5390
 k-point  11 :  -0.2500-0.0000 0.3333  plane waves:    5390
 k-point  12 :  -0.0000 0.3333 0.3333  plane waves:    5381
 k-point  13 :   0.2500 0.3333 0.3333  plane waves:    5388
 k-point  14 :   0.5000 0.3333 0.3333  plane waves:    5390
 k-point  15 :  -0.2500 0.3333 0.3333  plane waves:    5385
 k-point  16 :   0.0000-0.3333 0.3333  plane waves:    5381
 k-point  17 :   0.2500-0.3333 0.3333  plane waves:    5385
 k-point  18 :   0.5000-0.3333 0.3333  plane waves:    5390
 k-point  19 :  -0.2500-0.3333 0.3333  plane waves:    5388

 maximum and minimum number of plane-waves per node :      5414     5352

 maximum number of plane-waves:      5414
 maximum index in each direction: 
   IXMAX=   10   IYMAX=   10   IZMAX=   13
   IXMIN=  -11   IYMIN=  -10   IZMIN=  -13


 serial   3D FFT for wavefunctions
 parallel 3D FFT for charge:
    minimum data exchange during FFTs selected (reduces bandwidth)


 total amount of memory used by VASP MPI-rank0    73139. kBytes
=======================================================================

   base      :      30000. kBytes
   nonl-proj :      31073. kBytes
   fftplans  :        947. kBytes
   grid      :       3727. kBytes
   one-center:        466. kBytes
   wavefun   :       6926. kBytes
 
     INWAV:  cpu time      0.0000: real time      0.0000
 Broyden mixing: mesh for mixing (old mesh)
   NGX = 21   NGY = 21   NGZ = 27
  (NGX  = 64   NGY  = 64   NGZ  = 80)
  gives a total of  11907 points

 initial charge density was supplied:
 charge density of overlapping atoms calculated
 number of electron     126.0000000 magnetization      15.0000000
 keeping initial charge density in first step


--------------------------------------------------------------------------------------------------------


 Maximum index for augmentation-charges         1528 (set IRDMAX)


--------------------------------------------------------------------------------------------------------


 First call to EWALD:  gamma=   0.303
 Maximum number of real-space cells 3x 3x 2
 Maximum number of reciprocal cells 3x 3x 3

    FEWALD:  cpu time      0.0010: real time      0.0010


--------------------------------------- Ionic step        1  -------------------------------------------




--------------------------------------- Iteration      1(   1)  ---------------------------------------


    POTLOK:  cpu time      0.0131: real time      0.0148
    SETDIJ:  cpu time      0.3534: real time      0.3558
     EDDAV:  cpu time      2.9238: real time      2.9469
       DOS:  cpu time      0.0019: real time      0.0023
    --------------------------------------------
      LOOP:  cpu time      3.2922: real time      3.3198

 eigenvalue-minimisations  :  9728
 total energy-change (2. order) : 0.5757687E+03  (-0.5792458E+04)
 number of electron     126.0000000 magnetization      15.0000000
 augmentation part      126.0000000 magnetization      15.0000000

 Free energy of the ion-electron system (eV)
  ---------------------------------------------------
  alpha Z        PSCENC =       383.86934179
  Ewald energy   TEWEN  =     -9000.74210868
  -Hartree energ DENC   =     -3256.13583403
  -exchange      EXHF   =         0.00000000
  -V(xc)+E(xc)   XCENC  =       363.55297585
  PAW double counting   =      9969.93187932   -10552.26465188
  entropy T*S    EENTRO =        -0.00965990
  eigenvalues    EBANDS =      1307.59998249
  atomic energy  EATOM  =     11359.96677072
  Solvation  Ediel_sol  =         0.00000000
  ---------------------------------------------------
  free energy    TOTEN  =       575.76869568 eV

  energy without entropy =      575.77835558  energy(sigma->0) =      575.77352563


--------------------------------------------------------------------------------------------------------




--------------------------------------- Iteration      1(   2)  ---------------------------------------


     EDDAV:  cpu time      3.7668: real time      3.7873
       DOS:  cpu time      0.0007: real time      0.0007
    --------------------------------------------
      LOOP:  cpu time      3.7675: real time      3.7879

 eigenvalue-minimisations  : 11712
 total energy-change (2. order) :-0.6312319E+03  (-0.5617040E+03)
 number of electron     126.0000000 magnetization      15.0000000
 augmentation part      126.0000000 magnetization      15.0000000

 Free energy of the ion-electron system (eV)
  ---------------------------------------------------
  alpha Z        PSCENC =       383.86934179
  Ewald energy   TEWEN  =     -9000.74210868
  -Hartree energ DENC   =     -3256.13583403
  -exchange      EXHF   =         0.00000000
  -V(xc)+E(xc)   XCENC  =       363.55297585
  PAW double counting   =      9969.93187932   -10552.26465188
  entropy T*S    EENTRO =        -0.01524000
  eigenvalues    EBANDS =       676.37363116
  atomic energy  EATOM  =     11359.96677072
  Solvation  Ediel_sol  =         0.00000000
  ---------------------------------------------------
  free energy    TOTEN  =       -55.46323575 eV

  energy without entropy =      -55.44799575  energy(sigma->0) =      -55.45561575


--------------------------------------------------------------------------------------------------------




--------------------------------------- Iteration      1(   3)  ---------------------------------------


     EDDAV:  cpu time      4.1146: real time      4.1326
       DOS:  cpu time      0.0006: real time      0.0006
    --------------------------------------------
      LOOP:  cpu time      4.1152: real time      4.1332

 eigenvalue-minimisations  : 12288
 total energy-change (2. order) :-0.2939847E+02  (-0.2909233E+02)
 number of electron     126.0000000 magnetization      15.0000000
 augmentation part      126.0000000 magnetization      15.0000000

 Free energy of the ion-electron system (eV)
  ---------------------------------------------------
  alpha Z        PSCENC =       383.86934179
  Ewald energy   TEWEN  =     -9000.74210868
  -Hartree energ DENC   =     -3256.13583403
  -exchange      EXHF   =         0.00000000
  -V(xc)+E(xc)   XCENC  =       363.55297585
  PAW double counting   =      9969.93187932   -10552.26465188
  entropy T*S    EENTRO =        -0.01550757
  eigenvalues    EBANDS =       646.97542591
  atomic energy  EATOM  =     11359.96677072
  Solvation  Ediel_sol  =         0.00000000
  ---------------------------------------------------
  free energy    TOTEN  =       -84.86170857 eV

  energy without entropy =      -84.84620100  energy(sigma->0) =      -84.85395479


--------------------------------------------------------------------------------------------------------




--------------------------------------- Iteration      1(   4)  ---------------------------------------


     EDDAV:  cpu time      4.5251: real time      4.5449
       DOS:  cpu time      0.0007: real time      0.0007
    --------------------------------------------
      LOOP:  cpu time      4.5257: real time      4.5456

 eigenvalue-minimisations  : 12864
 total energy-change (2. order) :-0.3460529E+00  (-0.3459815E+00)
 number of electron     126.0000000 magnetization      15.0000000
 augmentation part      126.0000000 magnetization      15.0000000

 Free energy of the ion-electron system (eV)
  ---------------------------------------------------
  alpha Z        PSCENC =       383.86934179
  Ewald energy   TEWEN  =     -9000.74210868
  -Hartree energ DENC   =     -3256.13583403
  -exchange      EXHF   =         0.00000000
  -V(xc)+E(xc)   XCENC  =       363.55297585
  PAW double counting   =      9969.93187932   -10552.26465188
  entropy T*S    EENTRO =        -0.01535879
  eigenvalues    EBANDS =       646.62922423
  atomic energy  EATOM  =     11359.96677072
  Solvation  Ediel_sol  =         0.00000000
  ---------------------------------------------------
  free energy    TOTEN  =       -85.20776147 eV

  energy without entropy =      -85.19240268  energy(sigma->0) =      -85.20008208


--------------------------------------------------------------------------------------------------------




--------------------------------------- Iteration      1(   5)  ---------------------------------------


     EDDAV:  cpu time      3.8897: real time      3.9072
       DOS:  cpu time      0.0006: real time      0.0006
    CHARGE:  cpu time      0.0373: real time      0.0381
    MIXING:  cpu time      0.0012: real time      0.0014
    --------------------------------------------
      LOOP:  cpu time      3.9287: real time      3.9473

 eigenvalue-minimisations  : 11648
 total energy-change (2. order) :-0.8247466E-02  (-0.8247393E-02)
 number of electron     126.0000002 magnetization       6.7180064
 augmentation part       45.8012729 magnetization       5.8753745

 Broyden mixing:
  rms(total) = 0.39515E+01    rms(broyden)= 0.39512E+01
  rms(prec ) = 0.48420E+01
  weight for this iteration     100.00

 Free energy of the ion-electron system (eV)
  ---------------------------------------------------
  alpha Z        PSCENC =       383.86934179
  Ewald energy   TEWEN  =     -9000.74210868
  -Hartree energ DENC   =     -3256.13583403
  -exchange      EXHF   =         0.00000000
  -V(xc)+E(xc)   XCENC  =       363.55297585
  PAW double counting   =      9969.93187932   -10552.26465188
  entropy T*S    EENTRO =        -0.01535420
  eigenvalues    EBANDS =       646.62097217
  atomic energy  EATOM  =     11359.96677072
  Solvation  Ediel_sol  =         0.00000000
  ---------------------------------------------------
  free energy    TOTEN  =       -85.21600894 eV

  energy without entropy =      -85.20065474  energy(sigma->0) =      -85.20833184


--------------------------------------------------------------------------------------------------------




--------------------------------------- Iteration      1(   6)  ---------------------------------------


    POTLOK:  cpu time      0.0097: real time      0.0098
    SETDIJ:  cpu time      0.3565: real time      0.3578
     EDDAV:  cpu time      4.0709: real time      4.0887
       DOS:  cpu time      0.0006: real time      0.0006
    CHARGE:  cpu time      0.0352: real time      0.0354
    MIXING:  cpu time      0.0006: real time      0.0006
    --------------------------------------------
      LOOP:  cpu time      4.4735: real time      4.4929

 eigenvalue-minimisations  : 12352
 total energy-change (2. order) :-0.4865644E+01  (-0.6735217E+01)
 number of electron     126.0000003 magnetization       4.5185208
 augmentation part       57.3113871 magnetization       4.0883561

 Broyden mixing:
  rms(total) = 0.36900E+01    rms(broyden)= 0.36899E+01
  rms(prec ) = 0.47495E+01
  weight for this iteration     100.00

 eigenvalues of (default mixing * dielectric matrix)
  average eigenvalue GAMMA=   0.5973
  0.5973

 Free energy of the ion-electron system (eV)
  ---------------------------------------------------
  alpha Z        PSCENC =       383.86934179
  Ewald energy   TEWEN  =     -9000.74210868
  -Hartree energ DENC   =     -3016.82261343
  -exchange      EXHF   =         0.00000000
  -V(xc)+E(xc)   XCENC  =       352.49755933
  PAW double counting   =     11429.28652616   -11965.95595139
  entropy T*S    EENTRO =        -0.00623840
  eigenvalues    EBANDS =       367.82506096
  atomic energy  EATOM  =     11359.96677072
  Solvation  Ediel_sol  =         0.00000000
  ---------------------------------------------------
  free energy    TOTEN  =       -90.08165293 eV

  energy without entropy =      -90.07541453  energy(sigma->0) =      -90.07853373


--------------------------------------------------------------------------------------------------------




--------------------------------------- Iteration      1(   7)  ---------------------------------------


    POTLOK:  cpu time      0.0102: real time      0.0104
    SETDIJ:  cpu time      0.3449: real time      0.3458
     EDDAV:  cpu time      3.9959: real time      4.0128
       DOS:  cpu time      0.0006: real time      0.0006
    CHARGE:  cpu time      0.0336: real time      0.0338
    MIXING:  cpu time      0.0004: real time      0.0004
    --------------------------------------------
      LOOP:  cpu time      4.3855: real time      4.4037

 eigenvalue-minimisations  : 12288
 total energy-change (2. order) : 0.1063403E+02  (-0.2921140E+01)
 number of electron     126.0000003 magnetization      -0.4869950
 augmentation part       50.5098167 magnetization      -0.9334879

 Broyden mixing:
  rms(total) = 0.12634E+01    rms(broyden)= 0.12633E+01
  rms(prec ) = 0.13417E+01
  weight for this iteration     100.00

 eigenvalues of (default mixing * dielectric matrix)
  average eigenvalue GAMMA=   1.0077
  1.5397  0.4757

 Free energy of the ion-electron system (eV)
  ---------------------------------------------------
  alpha Z        PSCENC =       383.86934179
  Ewald energy   TEWEN  =     -9000.74210868
  -Hartree energ DENC   =     -3144.11671411
  -exchange      EXHF   =         0.00000000
  -V(xc)+E(xc)   XCENC  =       357.40422084
  PAW double counting   =     12316.21520467   -12898.07538577
  entropy T*S    EENTRO =        -0.00430999
  eigenvalues    EBANDS =       546.03536189
  atomic energy  EATOM  =     11359.96677072
  Solvation  Ediel_sol  =         0.00000000
  ---------------------------------------------------
  free energy    TOTEN  =       -79.44761862 eV

  energy without entropy =      -79.44330864  energy(sigma->0) =      -79.44546363


--------------------------------------------------------------------------------------------------------




--------------------------------------- Iteration      1(   8)  ---------------------------------------


    POTLOK:  cpu time      0.0101: real time      0.0121
    SETDIJ:  cpu time      0.3444: real time      0.3457
     EDDAV:  cpu time      4.7511: real time      4.7712
       DOS:  cpu time      0.0006: real time      0.0006
    CHARGE:  cpu time      0.0274: real time      0.0276
    MIXING:  cpu time      0.0004: real time      0.0004
    --------------------------------------------
      LOOP:  cpu time      5.1341: real time      5.1576

 eigenvalue-minimisations  : 13760
 total energy-change (2. order) :-0.2402337E+00  (-0.7539278E-01)
 number of electron     126.0000003 magnetization      -0.6476548
 augmentation part       50.9417528 magnetization      -0.7714200

 Broyden mixing:
  rms(total) = 0.42766E+00    rms(broyden)= 0.42763E+00
  rms(prec ) = 0.53463E+00
  weight for this iteration     100.00

 eigenvalues of (default mixing * dielectric matrix)
  average eigenvalue GAMMA=   1.0068
  0.4623  0.7789  1.7792

 Free energy of the ion-electron system (eV)
  ---------------------------------------------------
  alpha Z        PSCENC =       383.86934179
  Ewald energy   TEWEN  =     -9000.74210868
  -Hartree energ DENC   =     -3124.47111628
  -exchange      EXHF   =         0.00000000
  -V(xc)+E(xc)   XCENC  =       356.47253215
  PAW double counting   =     14093.62458661   -14686.67306324
  entropy T*S    EENTRO =        -0.00654342
  eigenvalues    EBANDS =       538.27174800
  atomic energy  EATOM  =     11359.96677072
  Solvation  Ediel_sol  =         0.00000000
  ---------------------------------------------------
  free energy    TOTEN  =       -79.68785234 eV

  energy without entropy =      -79.68130892  energy(sigma->0) =      -79.68458063


--------------------------------------------------------------------------------------------------------




--------------------------------------- Iteration      1(   9)  ---------------------------------------


    POTLOK:  cpu time      0.0098: real time      0.0100
    SETDIJ:  cpu time      0.3433: real time      0.3442
     EDDAV:  cpu time      5.0802: real time      5.1016
       DOS:  cpu time      0.0006: real time      0.0006
    CHARGE:  cpu time      0.0297: real time      0.0299
    MIXING:  cpu time      0.0006: real time      0.0006
    --------------------------------------------
      LOOP:  cpu time      5.4642: real time      5.4869

 eigenvalue-minimisations  : 13952
 total energy-change (2. order) :-0.2686635E+00  (-0.9367402E-01)
 number of electron     126.0000003 magnetization      -0.6454028
 augmentation part       51.0099610 magnetization      -0.6608342

 Broyden mixing:
  rms(total) = 0.63908E+00    rms(broyden)= 0.63903E+00
  rms(prec ) = 0.10171E+01
  weight for this iteration     100.00

 eigenvalues of (default mixing * dielectric matrix)
  average eigenvalue GAMMA=   0.8665
  1.8652  0.8608  0.4633  0.2769

 Free energy of the ion-electron system (eV)
  ---------------------------------------------------
  alpha Z        PSCENC =       383.86934179
  Ewald energy   TEWEN  =     -9000.74210868
  -Hartree energ DENC   =     -3120.93307978
  -exchange      EXHF   =         0.00000000
  -V(xc)+E(xc)   XCENC  =       356.33371507
  PAW double counting   =     14399.66832115   -14994.61073201
  entropy T*S    EENTRO =        -0.00556836
  eigenvalues    EBANDS =       536.49682423
  atomic energy  EATOM  =     11359.96677072
  Solvation  Ediel_sol  =         0.00000000
  ---------------------------------------------------
  free energy    TOTEN  =       -79.95651587 eV

  energy without entropy =      -79.95094751  energy(sigma->0) =      -79.95373169


--------------------------------------------------------------------------------------------------------




--------------------------------------- Iteration      1(  10)  ---------------------------------------


    POTLOK:  cpu time      0.0103: real time      0.0105
    SETDIJ:  cpu time      0.3421: real time      0.3431
     EDDAV:  cpu time      5.0754: real time      5.0962
       DOS:  cpu time      0.0006: real time      0.0006
    CHARGE:  cpu time      0.0298: real time      0.0299
    MIXING:  cpu time      0.0006: real time      0.0006
    --------------------------------------------
      LOOP:  cpu time      5.4589: real time      5.4810

 eigenvalue-minimisations  : 14016
 total energy-change (2. order) : 0.2779690E+00  (-0.5738444E-01)
 number of electron     126.0000003 magnetization      -0.2656181
 augmentation part       51.0987949 magnetization      -0.2130056

 Broyden mixing:
  rms(total) = 0.11545E+00    rms(broyden)= 0.11531E+00
  rms(prec ) = 0.14551E+00
  weight for this iteration     100.00

 eigenvalues of (default mixing * dielectric matrix)
  average eigenvalue GAMMA=   0.9733
  2.2189  1.2491  0.7477  0.4658  0.1850

 Free energy of the ion-electron system (eV)
  ---------------------------------------------------
  alpha Z        PSCENC =       383.86934179
  Ewald energy   TEWEN  =     -9000.74210868
  -Hartree energ DENC   =     -3118.70329666
  -exchange      EXHF   =         0.00000000
  -V(xc)+E(xc)   XCENC  =       356.25516805
  PAW double counting   =     14585.06132884   -15181.16382964
  entropy T*S    EENTRO =        -0.00595965
  eigenvalues    EBANDS =       535.78403836
  atomic energy  EATOM  =     11359.96677072
  Solvation  Ediel_sol  =         0.00000000
  ---------------------------------------------------
  free energy    TOTEN  =       -79.67854687 eV

  energy without entropy =      -79.67258723  energy(sigma->0) =      -79.67556705


--------------------------------------------------------------------------------------------------------




--------------------------------------- Iteration      1(  11)  ---------------------------------------


    POTLOK:  cpu time      0.0096: real time      0.0098
    SETDIJ:  cpu time      0.3415: real time      0.3424
     EDDAV:  cpu time      5.0672: real time      5.0882
       DOS:  cpu time      0.0009: real time      0.0009
    CHARGE:  cpu time      0.0352: real time      0.0354
    MIXING:  cpu time      0.0006: real time      0.0006
    --------------------------------------------
      LOOP:  cpu time      5.4549: real time      5.4772

 eigenvalue-minimisations  : 14592
 total energy-change (2. order) :-0.1422112E-01  (-0.6029021E-02)
 number of electron     126.0000003 magnetization      -0.2006560
 augmentation part       51.1296115 magnetization      -0.1487742

 Broyden mixing:
  rms(total) = 0.14809E+00    rms(broyden)= 0.14808E+00
  rms(prec ) = 0.23771E+00
  weight for this iteration     100.00

 eigenvalues of (default mixing * dielectric matrix)
  average eigenvalue GAMMA=   0.8790
  2.2138  1.2083  0.7764  0.4682  0.4235  0.1837

 Free energy of the ion-electron system (eV)
  ---------------------------------------------------
  alpha Z        PSCENC =       383.86934179
  Ewald energy   TEWEN  =     -9000.74210868
  -Hartree energ DENC   =     -3117.21394972
  -exchange      EXHF   =         0.00000000
  -V(xc)+E(xc)   XCENC  =       356.19893212
  PAW double counting   =     14729.17396859   -15326.20295671
  entropy T*S    EENTRO =        -0.00660407
  eigenvalues    EBANDS =       535.26383796
  atomic energy  EATOM  =     11359.96677072
  Solvation  Ediel_sol  =         0.00000000
  ---------------------------------------------------
  free energy    TOTEN  =       -79.69276799 eV

  energy without entropy =      -79.68616392  energy(sigma->0) =      -79.68946596


--------------------------------------------------------------------------------------------------------




--------------------------------------- Iteration      1(  12)  ---------------------------------------


    POTLOK:  cpu time      0.0101: real time      0.0103
    SETDIJ:  cpu time      0.3414: real time      0.3423
     EDDAV:  cpu time      4.6245: real time      4.6442
       DOS:  cpu time      0.0007: real time      0.0007
    CHARGE:  cpu time      0.0319: real time      0.0321
    MIXING:  cpu time      0.0006: real time      0.0017
    --------------------------------------------
      LOOP:  cpu time      5.0092: real time      5.0312

 eigenvalue-minimisations  : 13248
 total energy-change (2. order) : 0.1169034E-01  (-0.4858327E-02)
 number of electron     126.0000003 magnetization      -0.0919167
 augmentation part       51.1291881 magnetization      -0.0504152

 Broyden mixing:
  rms(total) = 0.53637E-01    rms(broyden)= 0.53610E-01
  rms(prec ) = 0.78507E-01
  weight for this iteration     100.00

 eigenvalues of (default mixing * dielectric matrix)
  average eigenvalue GAMMA=   0.8379
  2.1761  1.0842  1.0842  0.6901  0.4654  0.1883  0.1767

 Free energy of the ion-electron system (eV)
  ---------------------------------------------------
  alpha Z        PSCENC =       383.86934179
  Ewald energy   TEWEN  =     -9000.74210868
  -Hartree energ DENC   =     -3117.24678040
  -exchange      EXHF   =         0.00000000
  -V(xc)+E(xc)   XCENC  =       356.19920747
  PAW double counting   =     14734.04217468   -15331.14370349
  entropy T*S    EENTRO =        -0.00652819
  eigenvalues    EBANDS =       535.38054845
  atomic energy  EATOM  =     11359.96677072
  Solvation  Ediel_sol  =         0.00000000
  ---------------------------------------------------
  free energy    TOTEN  =       -79.68107765 eV

  energy without entropy =      -79.67454946  energy(sigma->0) =      -79.67781356


--------------------------------------------------------------------------------------------------------




--------------------------------------- Iteration      1(  13)  ---------------------------------------


    POTLOK:  cpu time      0.0096: real time      0.0096
    SETDIJ:  cpu time      0.3389: real time      0.3398
     EDDAV:  cpu time      5.1938: real time      5.2151
       DOS:  cpu time      0.0007: real time      0.0007
    CHARGE:  cpu time      0.0297: real time      0.0299
    MIXING:  cpu time      0.0007: real time      0.0007
    --------------------------------------------
      LOOP:  cpu time      5.5733: real time      5.5959

 eigenvalue-minimisations  : 14912
 total energy-change (2. order) :-0.7448229E-03  (-0.4984164E-03)
 number of electron     126.0000003 magnetization       0.0089317
 augmentation part       51.1122999 magnetization       0.0225189

 Broyden mixing:
  rms(total) = 0.18995E-01    rms(broyden)= 0.18992E-01
  rms(prec ) = 0.22012E-01
  weight for this iteration     100.00

 eigenvalues of (default mixing * dielectric matrix)
  average eigenvalue GAMMA=   0.8930
  2.0911  1.3704  1.3704  0.8351  0.6523  0.4643  0.1867  0.1740

 Free energy of the ion-electron system (eV)
  ---------------------------------------------------
  alpha Z        PSCENC =       383.86934179
  Ewald energy   TEWEN  =     -9000.74210868
  -Hartree energ DENC   =     -3117.65889269
  -exchange      EXHF   =         0.00000000
  -V(xc)+E(xc)   XCENC  =       356.21180317
  PAW double counting   =     14718.90709575   -15316.02472696
  entropy T*S    EENTRO =        -0.00646991
  eigenvalues    EBANDS =       535.79536432
  atomic energy  EATOM  =     11359.96677072
  Solvation  Ediel_sol  =         0.00000000
  ---------------------------------------------------
  free energy    TOTEN  =       -79.68182248 eV

  energy without entropy =      -79.67535256  energy(sigma->0) =      -79.67858752


--------------------------------------------------------------------------------------------------------




--------------------------------------- Iteration      1(  14)  ---------------------------------------


    POTLOK:  cpu time      0.0104: real time      0.0115
    SETDIJ:  cpu time      0.3413: real time      0.3425
     EDDAV:  cpu time      5.1502: real time      5.1712
       DOS:  cpu time      0.0007: real time      0.0007
    CHARGE:  cpu time      0.0289: real time      0.0291
    MIXING:  cpu time      0.0005: real time      0.0005
    --------------------------------------------
      LOOP:  cpu time      5.5320: real time      5.5554

 eigenvalue-minimisations  : 14528
 total energy-change (2. order) :-0.3945948E-03  (-0.7025317E-04)
 number of electron     126.0000003 magnetization       0.0105959
 augmentation part       51.1180727 magnetization       0.0093208

 Broyden mixing:
  rms(total) = 0.98214E-02    rms(broyden)= 0.98191E-02
  rms(prec ) = 0.13718E-01
  weight for this iteration     100.00

 eigenvalues of (default mixing * dielectric matrix)
  average eigenvalue GAMMA=   0.9277
  2.0260  1.8387  1.2199  0.9877  0.8173  0.4647  0.6347  0.1867  0.1741

 Free energy of the ion-electron system (eV)
  ---------------------------------------------------
  alpha Z        PSCENC =       383.86934179
  Ewald energy   TEWEN  =     -9000.74210868
  -Hartree energ DENC   =     -3117.53808209
  -exchange      EXHF   =         0.00000000
  -V(xc)+E(xc)   XCENC  =       356.20458771
  PAW double counting   =     14722.60448224   -15319.77876168
  entropy T*S    EENTRO =        -0.00648693
  eigenvalues    EBANDS =       535.73803985
  atomic energy  EATOM  =     11359.96677072
  Solvation  Ediel_sol  =         0.00000000
  ---------------------------------------------------
  free energy    TOTEN  =       -79.68221707 eV

  energy without entropy =      -79.67573014  energy(sigma->0) =      -79.67897361


--------------------------------------------------------------------------------------------------------




--------------------------------------- Iteration      1(  15)  ---------------------------------------


    POTLOK:  cpu time      0.0094: real time      0.0096
    SETDIJ:  cpu time      0.3370: real time      0.3379
     EDDAV:  cpu time      4.8580: real time      4.8780
       DOS:  cpu time      0.0007: real time      0.0007
    CHARGE:  cpu time      0.0298: real time      0.0299
    MIXING:  cpu time      0.0006: real time      0.0006
    --------------------------------------------
      LOOP:  cpu time      5.2355: real time      5.2569

 eigenvalue-minimisations  : 13696
 total energy-change (2. order) :-0.2300754E-03  (-0.8528690E-04)
 number of electron     126.0000003 magnetization       0.0065046
 augmentation part       51.1204380 magnetization       0.0045375

 Broyden mixing:
  rms(total) = 0.18888E-01    rms(broyden)= 0.18885E-01
  rms(prec ) = 0.32560E-01
  weight for this iteration     100.00

 eigenvalues of (default mixing * dielectric matrix)
  average eigenvalue GAMMA=   0.8974
  2.0575  2.0575  1.1800  1.1800  0.8456  0.6412  0.4646  0.1740  0.1866  0.1866

 Free energy of the ion-electron system (eV)
  ---------------------------------------------------
  alpha Z        PSCENC =       383.86934179
  Ewald energy   TEWEN  =     -9000.74210868
  -Hartree energ DENC   =     -3117.50005930
  -exchange      EXHF   =         0.00000000
  -V(xc)+E(xc)   XCENC  =       356.20283846
  PAW double counting   =     14725.42029224   -15322.62752310
  entropy T*S    EENTRO =        -0.00649096
  eigenvalues    EBANDS =       535.73449169
  atomic energy  EATOM  =     11359.96677072
  Solvation  Ediel_sol  =         0.00000000
  ---------------------------------------------------
  free energy    TOTEN  =       -79.68244715 eV

  energy without entropy =      -79.67595618  energy(sigma->0) =      -79.67920166


--------------------------------------------------------------------------------------------------------




--------------------------------------- Iteration      1(  16)  ---------------------------------------


    POTLOK:  cpu time      0.0096: real time      0.0098
    SETDIJ:  cpu time      0.3399: real time      0.3408
     EDDAV:  cpu time      4.0099: real time      4.0269
       DOS:  cpu time      0.0007: real time      0.0007
    CHARGE:  cpu time      0.0306: real time      0.0308
    MIXING:  cpu time      0.0007: real time      0.0007
    --------------------------------------------
      LOOP:  cpu time      4.3914: real time      4.4098

 eigenvalue-minimisations  : 12160
 total energy-change (2. order) : 0.1983221E-03  (-0.5419518E-04)
 number of electron     126.0000003 magnetization       0.0031811
 augmentation part       51.1229480 magnetization       0.0014836

 Broyden mixing:
  rms(total) = 0.33806E-02    rms(broyden)= 0.33698E-02
  rms(prec ) = 0.40691E-02
  weight for this iteration     100.00

 eigenvalues of (default mixing * dielectric matrix)
  average eigenvalue GAMMA=   0.9527
  2.3064  2.3064  1.3409  1.2581  0.9603  0.4646  0.6967  0.6212  0.1867  0.1741
  0.1638

 Free energy of the ion-electron system (eV)
  ---------------------------------------------------
  alpha Z        PSCENC =       383.86934179
  Ewald energy   TEWEN  =     -9000.74210868
  -Hartree energ DENC   =     -3117.46766866
  -exchange      EXHF   =         0.00000000
  -V(xc)+E(xc)   XCENC  =       356.20136013
  PAW double counting   =     14728.62480440   -15325.87263602
  entropy T*S    EENTRO =        -0.00649333
  eigenvalues    EBANDS =       535.74438082
  atomic energy  EATOM  =     11359.96677072
  Solvation  Ediel_sol  =         0.00000000
  ---------------------------------------------------
  free energy    TOTEN  =       -79.68224882 eV

  energy without entropy =      -79.67575549  energy(sigma->0) =      -79.67900216


--------------------------------------------------------------------------------------------------------




--------------------------------------- Iteration      1(  17)  ---------------------------------------


    POTLOK:  cpu time      0.0102: real time      0.0104
    SETDIJ:  cpu time      0.3405: real time      0.3413
     EDDAV:  cpu time      5.4725: real time      5.4958
       DOS:  cpu time      0.0006: real time      0.0006
    CHARGE:  cpu time      0.0286: real time      0.0288
    MIXING:  cpu time      0.0006: real time      0.0007
    --------------------------------------------
      LOOP:  cpu time      5.8531: real time      5.8775

 eigenvalue-minimisations  : 15424
 total energy-change (2. order) :-0.1658341E-04  (-0.4942742E-05)
 number of electron     126.0000003 magnetization       0.0022663
 augmentation part       51.1225866 magnetization       0.0016560

 Broyden mixing:
  rms(total) = 0.37895E-02    rms(broyden)= 0.37847E-02
  rms(prec ) = 0.61011E-02
  weight for this iteration     100.00

 eigenvalues of (default mixing * dielectric matrix)
  average eigenvalue GAMMA=   0.9076
  2.3530  2.3530  1.3705  1.2612  0.9537  0.7118  0.4646  0.6223  0.2772  0.1867
  0.1741  0.1635

 Free energy of the ion-electron system (eV)
  ---------------------------------------------------
  alpha Z        PSCENC =       383.86934179
  Ewald energy   TEWEN  =     -9000.74210868
  -Hartree energ DENC   =     -3117.49912573
  -exchange      EXHF   =         0.00000000
  -V(xc)+E(xc)   XCENC  =       356.20253863
  PAW double counting   =     14728.52641227   -15325.78655019
  entropy T*S    EENTRO =        -0.00649123
  eigenvalues    EBANDS =       535.78694701
  atomic energy  EATOM  =     11359.96677072
  Solvation  Ediel_sol  =         0.00000000
  ---------------------------------------------------
  free energy    TOTEN  =       -79.68226541 eV

  energy without entropy =      -79.67577418  energy(sigma->0) =      -79.67901979


--------------------------------------------------------------------------------------------------------




--------------------------------------- Iteration      1(  18)  ---------------------------------------


    POTLOK:  cpu time      0.0095: real time      0.0097
    SETDIJ:  cpu time      0.3396: real time      0.3405
     EDDAV:  cpu time      4.7202: real time      4.7400
       DOS:  cpu time      0.0008: real time      0.0008
    CHARGE:  cpu time      0.0321: real time      0.0323
    MIXING:  cpu time      0.0010: real time      0.0010
    --------------------------------------------
      LOOP:  cpu time      5.1032: real time      5.1243

 eigenvalue-minimisations  : 13440
 total energy-change (2. order) : 0.7632600E-05  (-0.2469254E-05)
 number of electron     126.0000003 magnetization       0.0005987
 augmentation part       51.1225616 magnetization       0.0002287

 Broyden mixing:
  rms(total) = 0.11771E-02    rms(broyden)= 0.11617E-02
  rms(prec ) = 0.14471E-02
  weight for this iteration     100.00

 eigenvalues of (default mixing * dielectric matrix)
  average eigenvalue GAMMA=   0.9139
  2.6153  2.3239  1.4226  1.3015  0.8937  0.8937  0.4646  0.6298  0.6298  0.1867
  0.1741  0.1631  0.1819

 Free energy of the ion-electron system (eV)
  ---------------------------------------------------
  alpha Z        PSCENC =       383.86934179
  Ewald energy   TEWEN  =     -9000.74210868
  -Hartree energ DENC   =     -3117.50600130
  -exchange      EXHF   =         0.00000000
  -V(xc)+E(xc)   XCENC  =       356.20277392
  PAW double counting   =     14728.33844145   -15325.59952815
  entropy T*S    EENTRO =        -0.00649125
  eigenvalues    EBANDS =       535.79454372
  atomic energy  EATOM  =     11359.96677072
  Solvation  Ediel_sol  =         0.00000000
  ---------------------------------------------------
  free energy    TOTEN  =       -79.68225777 eV

  energy without entropy =      -79.67576653  energy(sigma->0) =      -79.67901215


--------------------------------------------------------------------------------------------------------




--------------------------------------- Iteration      1(  19)  ---------------------------------------


    POTLOK:  cpu time      0.0096: real time      0.0098
    SETDIJ:  cpu time      0.3424: real time      0.3433
     EDDAV:  cpu time      2.9783: real time      2.9913
       DOS:  cpu time      0.0006: real time      0.0006
    --------------------------------------------
      LOOP:  cpu time      3.3309: real time      3.3450

 eigenvalue-minimisations  :  8576
 total energy-change (2. order) :-0.1179293E-05  (-0.2717785E-06)
 number of electron     126.0000003 magnetization       0.0005987
 augmentation part       51.1225616 magnetization       0.0002287

 Free energy of the ion-electron system (eV)
  ---------------------------------------------------
  alpha Z        PSCENC =       383.86934179
  Ewald energy   TEWEN  =     -9000.74210868
  -Hartree energ DENC   =     -3117.51464444
  -exchange      EXHF   =         0.00000000
  -V(xc)+E(xc)   XCENC  =       356.20302267
  PAW double counting   =     14727.88553368   -15325.14519474
  entropy T*S    EENTRO =        -0.00649176
  eigenvalues    EBANDS =       535.80151179
  atomic energy  EATOM  =     11359.96677072
  Solvation  Ediel_sol  =         0.00000000
  ---------------------------------------------------
  free energy    TOTEN  =       -79.68225895 eV

  energy without entropy =      -79.67576720  energy(sigma->0) =      -79.67901308


--------------------------------------------------------------------------------------------------------




 average (electrostatic) potential at core
  the test charge radii are     0.9791  0.9698
  (the norm of the test charge is              1.0000)
       1 -83.2014       2 -83.2047       3 -83.1982       4 -83.2007       5 -83.2040
       6 -83.1990       7 -83.2010       8 -83.2040       9 -83.1983      10 -84.6497
      11 -84.6478      12 -84.6497      13 -84.6477      14 -84.6496      15 -84.6477
 
 
 
 E-fermi :   8.4060     XC(G=0): -11.7165     alpha+bet :-14.1857

 Fermi energy:         8.4059524238

 spin component 1

 k-point     1 :       0.0000    0.0000    0.0000
  band No.  band energies     occupation 
      1      -7.3502      1.00000
      2      -6.1025      1.00000
      3      -6.1025      1.00000
      4      -5.7329      1.00000
      5      -5.7328      1.00000
      6      -5.3825      1.00000
      7       1.3123      1.00000
      8       1.3123      1.00000
      9       1.3318      1.00000
     10       1.3319      1.00000
     11       2.0385      1.00000
     12       2.0385      1.00000
     13       2.3045      1.00000
     14       2.3061      1.00000
     15       2.3672      1.00000
     16       2.7159      1.00000
     17       2.7160      1.00000
     18       3.3190      1.00000
     19       3.3218      1.00000
     20       3.6348      1.00000
     21       3.6348      1.00000
     22       3.7017      1.00000
     23       3.7017      1.00000
     24       3.7116      1.00000
     25       4.9657      1.00000
     26       5.3134      1.00000
     27       5.3135      1.00000
     28       5.4167      1.00000
     29       5.4168      1.00000
     30       5.6251      1.00000
     31       5.6251      1.00000
     32       6.0268      1.00000
     33       6.0270      1.00000
     34       6.0356      1.00000
     35       6.0357      1.00000
     36       6.0703      1.00000
     37       6.0722      1.00000
     38       6.2435      1.00000
     39       6.2977      1.00000
     40       6.2987      1.00000
     41       6.5968      1.00000
     42       6.5969      1.00000
     43       6.6532      1.00000
     44       6.6552      1.00000
     45       6.6969      1.00000
     46       6.6971      1.00000
     47       6.7014      1.00000
     48       6.7014      1.00000
     49       6.9261      1.00000
     50       6.9264      1.00000
     51       6.9424      1.00000
     52       6.9425      1.00000
     53       7.0462      1.00000
     54       7.0464      1.00000
     55       7.2099      1.00000
     56       7.3419      1.00000
     57       7.3445      1.00000
     58       7.4327      1.00000
     59       7.4328      1.00000
     60       7.8336      1.00000
     61       8.0401      1.00000
     62       8.0403      1.00000
     63       8.4421      0.15363
     64       8.4421      0.15348
     65       8.6044      0.00000
     66       8.6044      0.00000
     67       9.6298      0.00000
     68       9.6313      0.00000
     69       9.7906      0.00000
     70      10.3508      0.00000
     71      10.3525      0.00000
     72      10.5358      0.00000
     73      13.4714      0.00000
     74      13.4714      0.00000
     75      14.6443      0.00000
     76      14.6444      0.00000
     77      14.7465      0.00000
     78      14.7465      0.00000
     79      14.8563      0.00000
     80      14.8564      0.00000
     81      14.9679      0.00000
     82      14.9679      0.00000
     83      15.6332      0.00000
     84      15.6332      0.00000
     85      16.0015      0.00000
     86      16.0026      0.00000
     87      16.2001      0.00000
     88      17.2940      0.00000
     89      17.2947      0.00000
     90      18.2500      0.00000
     91      18.2500      0.00000
     92      18.8687      0.00000
     93      18.8687      0.00000
     94      19.7093      0.00000
     95      19.7093      0.00000
     96      19.8047      0.00000
     97      19.8062      0.00000
     98      20.0688      0.00000
     99      20.0688      0.00000
    100      20.7641      0.00000
    101      21.0203      0.00000
    102      21.4732      0.00000
    103      21.4732      0.00000
    104      21.8865      0.00000
    105      21.8875      0.00000
    106      21.8894      0.00000
    107      21.8894      0.00000
    108      22.5019      0.00000
    109      22.7158      0.00000
    110      22.7165      0.00000
    111      23.2839      0.00000
    112      23.2839      0.00000
    113      23.6289      0.00000
    114      23.6290      0.00000
    115      23.7533      0.00000
    116      23.7533      0.00000
    117      24.4931      0.00000
    118      24.4931      0.00000
    119      24.7457      0.00000
    120      24.7457      0.00000
    121      25.0797      0.00000
    122      25.0797      0.00000
    123      25.3226      0.00000
    124      26.1101      0.00000
    125      26.1101      0.00000
    126      27.6252      0.00000
    127      27.6252      0.00000
    128      28.8110      0.00000

 k-point     2 :       0.2500    0.0000    0.0000
  band No.  band energies     occupation 
      1      -7.1304      1.00000
      2      -6.0717      1.00000
      3      -6.0472      1.00000
      4      -5.8964      1.00000
      5      -5.8387      1.00000
      6      -5.4986      1.00000
      7       0.8709      1.00000
      8       1.0947      1.00000
      9       1.1696      1.00000
     10       1.3154      1.00000
     11       2.0323      1.00000
     12       2.2775      1.00000
     13       2.4512      1.00000
     14       2.5798      1.00000
     15       2.7193      1.00000
     16       2.7312      1.00000
     17       2.8433      1.00000
     18       2.9218      1.00000
     19       3.2694      1.00000
     20       3.4686      1.00000
     21       3.6169      1.00000
     22       3.7023      1.00000
     23       3.7808      1.00000
     24       3.8179      1.00000
     25       5.0203      1.00000
     26       5.1582      1.00000
     27       5.2510      1.00000
     28       5.4085      1.00000
     29       5.4817      1.00000
     30       5.7820      1.00000
     31       5.8497      1.00000
     32       5.8614      1.00000
     33       5.9625      1.00000
     34       6.0636      1.00000
     35       6.1296      1.00000
     36       6.1468      1.00000
     37       6.2958      1.00000
     38       6.2997      1.00000
     39       6.3214      1.00000
     40       6.3817      1.00000
     41       6.5295      1.00000
     42       6.6023      1.00000
     43       6.6844      1.00000
     44       6.7626      1.00000
     45       6.7730      1.00000
     46       6.7790      1.00000
     47       6.7928      1.00000
     48       6.8265      1.00000
     49       6.8743      1.00000
     50       6.8909      1.00000
     51       6.9281      1.00000
     52       6.9659      1.00000
     53       7.1139      1.00000
     54       7.1141      1.00000
     55       7.1324      1.00000
     56       7.1670      1.00000
     57       7.3386      1.00000
     58       7.3674      1.00000
     59       7.4969      1.00000
     60       7.8262      1.00000
     61       7.8336      1.00000
     62       7.9789      1.00000
     63       8.5306      0.00021
     64       8.6042      0.00000
     65       8.8044      0.00000
     66       9.0155      0.00000
     67       9.1161      0.00000
     68       9.2267      0.00000
     69       9.4333      0.00000
     70      11.0980      0.00000
     71      11.4495      0.00000
     72      11.8078      0.00000
     73      12.5990      0.00000
     74      12.7603      0.00000
     75      13.0820      0.00000
     76      13.3619      0.00000
     77      14.0695      0.00000
     78      14.3545      0.00000
     79      14.4604      0.00000
     80      15.0796      0.00000
     81      15.3493      0.00000
     82      15.7843      0.00000
     83      15.8839      0.00000
     84      16.0718      0.00000
     85      16.3630      0.00000
     86      16.4844      0.00000
     87      16.9030      0.00000
     88      16.9207      0.00000
     89      17.3977      0.00000
     90      17.5226      0.00000
     91      17.8966      0.00000
     92      17.9382      0.00000
     93      18.2553      0.00000
     94      18.9414      0.00000
     95      19.0168      0.00000
     96      19.1396      0.00000
     97      19.2670      0.00000
     98      19.7561      0.00000
     99      20.1877      0.00000
    100      20.3171      0.00000
    101      21.1266      0.00000
    102      21.3029      0.00000
    103      21.4510      0.00000
[...]
     29       5.5582      1.00000
     30       5.6106      1.00000
     31       5.7809      1.00000
     32       5.8039      1.00000
     33       5.8250      1.00000
     34       5.9740      1.00000
     35       6.0139      1.00000
     36       6.0265      1.00000
     37       6.1687      1.00000
     38       6.2242      1.00000
     39       6.2442      1.00000
     40       6.3809      1.00000
     41       6.3826      1.00000
     42       6.4176      1.00000
     43       6.4972      1.00000
     44       6.5033      1.00000
     45       6.5391      1.00000
     46       6.7093      1.00000
     47       6.7297      1.00000
     48       6.7737      1.00000
     49       6.8048      1.00000
     50       6.8086      1.00000
     51       6.9034      1.00000
     52       6.9465      1.00000
     53       6.9565      1.00000
     54       7.0021      1.00000
     55       7.1304      1.00000
     56       7.2622      1.00000
     57       7.2707      1.00000
     58       7.3571      1.00000
     59       7.3998      1.00000
     60       7.4239      1.00000
     61       7.5328      1.00000
     62       7.6350      1.00000
     63       7.8551      1.00000
     64       8.5639      0.00000
     65       8.7297      0.00000
     66       8.8539      0.00000
     67       9.0186      0.00000
     68       9.0985      0.00000
     69       9.1084      0.00000
     70      12.2848      0.00000
     71      12.3184      0.00000
     72      12.4552      0.00000
     73      12.5971      0.00000
     74      12.7077      0.00000
     75      12.8612      0.00000
     76      13.5061      0.00000
     77      13.8280      0.00000
     78      13.9110      0.00000
     79      13.9617      0.00000
     80      14.0965      0.00000
     81      14.1729      0.00000
     82      14.8639      0.00000
     83      15.0796      0.00000
     84      15.1899      0.00000
     85      15.7224      0.00000
     86      15.7397      0.00000
     87      15.8930      0.00000
     88      16.8239      0.00000
     89      16.9243      0.00000
     90      17.1731      0.00000
     91      17.3583      0.00000
     92      17.6072      0.00000
     93      17.6877      0.00000
     94      18.9103      0.00000
     95      19.0324      0.00000
     96      19.0916      0.00000
     97      19.1306      0.00000
     98      19.2311      0.00000
     99      19.4850      0.00000
    100      19.6365      0.00000
    101      20.2655      0.00000
    102      20.4840      0.00000
    103      20.6351      0.00000
    104      20.7523      0.00000
    105      21.7918      0.00000
    106      21.7978      0.00000
    107      21.8082      0.00000
    108      22.3268      0.00000
    109      22.3312      0.00000
    110      23.0340      0.00000
    111      23.2577      0.00000
    112      23.9512      0.00000
    113      24.7979      0.00000
    114      24.8054      0.00000
    115      25.1224      0.00000
    116      26.0306      0.00000
    117      26.0323      0.00000
    118      26.3948      0.00000
    119      26.4420      0.00000
    120      26.5955      0.00000
    121      26.6594      0.00000
    122      26.9264      0.00000
    123      27.0143      0.00000
    124      27.2049      0.00000
    125      27.3988      0.00000
    126      27.5364      0.00000
    127      27.5846      0.00000
    128      27.6238      0.00000


--------------------------------------------------------------------------------------------------------


 soft charge-density along one line, spin component           1
         0         1         2         3         4         5         6         7         8         9
 total charge-density along one line
 
 soft charge-density along one line, spin component           2
         0         1         2         3         4         5         6         7         8         9
 total charge-density along one line
 
 pseudopotential strength for first ion, spin component:           1
 -1.120  -0.042  -0.047  -0.021   0.020  -1.779  -0.040  -0.044
 -0.042  -1.242  -0.010   0.072   0.028  -0.040  -1.896  -0.009
 -0.047  -0.010  -1.251  -0.016  -0.025  -0.044  -0.009  -1.904
 -0.021   0.072  -0.016  -1.162  -0.042  -0.020   0.069  -0.016
  0.020   0.028  -0.025  -0.042  -1.143   0.019   0.027  -0.023
 -1.779  -0.040  -0.044  -0.020   0.019  -2.367  -0.039  -0.042
 -0.040  -1.896  -0.009   0.069   0.027  -0.039  -2.479  -0.009
 -0.044  -0.009  -1.904  -0.016  -0.023  -0.042  -0.009  -2.486
 -0.020   0.069  -0.016  -1.819  -0.040  -0.019   0.066  -0.015
  0.019   0.027  -0.023  -0.040  -1.801   0.019   0.026  -0.022
 -0.014   0.007   0.012   0.011  -0.008  -0.014   0.007   0.012
 -0.025   0.011   0.021   0.019  -0.014  -0.025   0.011   0.020
 -0.000  -0.000   0.000  -0.000   0.001   0.000  -0.000   0.000
 -0.000  -0.001  -0.000   0.000   0.000  -0.000  -0.001  -0.000
 -0.001  -0.000  -0.000  -0.000   0.000  -0.001  -0.000  -0.000
 -0.001  -0.000   0.000  -0.000   0.000  -0.000  -0.000   0.000
 -0.000  -0.000  -0.000  -0.000   0.000  -0.000  -0.001  -0.000
 -0.000  -0.000   0.000  -0.000   0.000  -0.000  -0.000   0.000
 pseudopotential strength for first ion, spin component:           2
 -1.120  -0.042  -0.047  -0.021   0.020  -1.779  -0.040  -0.044
 -0.042  -1.242  -0.010   0.072   0.028  -0.040  -1.896  -0.009
 -0.047  -0.010  -1.251  -0.016  -0.025  -0.044  -0.009  -1.904
 -0.021   0.072  -0.016  -1.162  -0.042  -0.020   0.069  -0.016
  0.020   0.028  -0.025  -0.042  -1.143   0.019   0.027  -0.023
 -1.779  -0.040  -0.044  -0.020   0.019  -2.367  -0.039  -0.042
 -0.040  -1.896  -0.009   0.069   0.027  -0.039  -2.479  -0.009
 -0.044  -0.009  -1.904  -0.016  -0.023  -0.042  -0.009  -2.486
 -0.020   0.069  -0.016  -1.819  -0.040  -0.019   0.066  -0.015
  0.019   0.027  -0.023  -0.040  -1.801   0.019   0.026  -0.022
 -0.014   0.007   0.012   0.011  -0.008  -0.014   0.007   0.012
 -0.025   0.011   0.021   0.019  -0.014  -0.025   0.011   0.020
 -0.000  -0.000   0.000  -0.000   0.001   0.000  -0.000   0.000
 -0.000  -0.001  -0.000   0.000   0.000  -0.000  -0.001  -0.000
 -0.001  -0.000  -0.000  -0.000   0.000  -0.001  -0.000  -0.000
 -0.001  -0.000   0.000  -0.000   0.000  -0.000  -0.000   0.000
 -0.000  -0.000  -0.000  -0.000   0.000  -0.000  -0.001  -0.000
 -0.000  -0.000   0.000  -0.000   0.000  -0.000  -0.000   0.000
 total augmentation occupancy for first ion, spin component:           1
  3.378   0.316   0.181  -0.002  -0.012  -1.631  -0.407  -0.071  -0.014   0.297   0.482  -0.087  -0.414  -0.117   0.005   0.063
  0.316   3.556   0.061  -0.060  -0.378  -0.411  -2.128  -0.034   0.396   0.474  -0.378   0.064  -0.209   0.312  -0.125   0.027
  0.181   0.061   2.843   0.100   0.120  -0.053  -0.031  -1.597  -0.043  -0.042  -0.192   0.022   0.168   0.003  -0.096  -0.033
 -0.002  -0.060   0.100   3.495   0.322  -0.014   0.397  -0.048  -1.679  -0.416  -0.629   0.107  -0.123  -0.182   0.212   0.017
 -0.012  -0.378   0.120   0.322   3.391   0.297   0.469  -0.052  -0.412  -1.972   0.279  -0.050  -0.000   0.198   0.403   0.001
 -1.631  -0.411  -0.053  -0.014   0.297   1.731   0.472  -0.017   0.028  -0.490  -0.445   0.095   0.397   0.110   0.005  -0.066
 -0.407  -2.128  -0.031   0.397   0.469   0.472   2.446   0.014  -0.626  -0.534   0.357  -0.072   0.203  -0.307   0.125  -0.031
 -0.071  -0.034  -1.597  -0.048  -0.052  -0.017   0.014   2.044   0.009  -0.001   0.172  -0.025  -0.172  -0.003   0.098   0.039
 -0.014   0.396  -0.043  -1.679  -0.412   0.028  -0.626   0.009   1.732   0.478   0.592  -0.120   0.117   0.179  -0.208  -0.019
  0.297   0.474  -0.042  -0.416  -1.972  -0.490  -0.534  -0.001   0.478   2.294  -0.258   0.055  -0.009  -0.187  -0.398   0.004
  0.482  -0.378  -0.192  -0.629   0.279  -0.445   0.357   0.172   0.592  -0.258   2.443  -0.468  -0.034  -0.002   0.021   0.009
 -0.087   0.064   0.022   0.107  -0.050   0.095  -0.072  -0.025  -0.120   0.055  -0.468   0.108   0.014   0.001  -0.008  -0.003
 -0.414  -0.209   0.168  -0.123  -0.000   0.397   0.203  -0.172   0.117  -0.009  -0.034   0.014   0.368   0.034  -0.046  -0.054
 -0.117   0.312   0.003  -0.182   0.198   0.110  -0.307  -0.003   0.179  -0.187  -0.002   0.001   0.034   0.375   0.056  -0.007
  0.005  -0.125  -0.096   0.212   0.403   0.005   0.125   0.098  -0.208  -0.398   0.021  -0.008  -0.046   0.056   0.315   0.009
  0.063   0.027  -0.033   0.017   0.001  -0.066  -0.031   0.039  -0.019   0.004   0.009  -0.003  -0.054  -0.007   0.009   0.010
  0.017  -0.059  -0.001   0.035  -0.029  -0.019   0.061   0.001  -0.035   0.032   0.001  -0.000  -0.007  -0.053  -0.011   0.001
 -0.001   0.016   0.019  -0.028  -0.061  -0.004  -0.018  -0.023   0.032   0.070  -0.006   0.002   0.009  -0.011  -0.044  -0.002
 total augmentation occupancy for first ion, spin component:           2
  0.000  -0.000  -0.000   0.000   0.000  -0.000  -0.000  -0.000   0.000   0.000  -0.000   0.000  -0.000   0.000   0.000   0.000
 -0.000   0.000   0.000   0.000  -0.000  -0.000  -0.000  -0.000  -0.000   0.000   0.000  -0.000  -0.000  -0.000  -0.000   0.000
 -0.000   0.000  -0.000   0.000   0.000  -0.000  -0.000   0.000  -0.000   0.000  -0.000   0.000  -0.000  -0.000  -0.000   0.000
  0.000   0.000   0.000   0.000  -0.000   0.000  -0.000  -0.000  -0.000   0.000   0.000  -0.000   0.000  -0.000   0.000  -0.000
  0.000  -0.000   0.000  -0.000   0.000   0.000   0.000   0.000   0.000  -0.000   0.000  -0.000  -0.000  -0.000   0.000   0.000
 -0.000  -0.000  -0.000   0.000   0.000   0.000   0.000   0.000  -0.000  -0.000  -0.000   0.000   0.000   0.000   0.000  -0.000
 -0.000  -0.000  -0.000  -0.000   0.000   0.000   0.000   0.000   0.000  -0.000  -0.000   0.000   0.000   0.000  -0.000  -0.000
 -0.000  -0.000   0.000  -0.000   0.000   0.000   0.000  -0.000   0.000  -0.000   0.000  -0.000   0.000  -0.000  -0.000  -0.000
  0.000  -0.000  -0.000  -0.000   0.000  -0.000   0.000   0.000   0.000   0.000  -0.000   0.000   0.000   0.000   0.000  -0.000
  0.000   0.000   0.000   0.000  -0.000  -0.000  -0.000  -0.000   0.000   0.000   0.000  -0.000   0.000   0.000  -0.000  -0.000
 -0.000   0.000  -0.000   0.000   0.000  -0.000  -0.000   0.000  -0.000   0.000  -0.000   0.000   0.000  -0.000   0.000  -0.000
  0.000  -0.000   0.000  -0.000  -0.000   0.000   0.000  -0.000   0.000  -0.000   0.000  -0.000  -0.000   0.000  -0.000   0.000
 -0.000  -0.000  -0.000   0.000  -0.000   0.000   0.000   0.000   0.000   0.000   0.000  -0.000   0.000  -0.000   0.000  -0.000
  0.000  -0.000  -0.000  -0.000  -0.000   0.000   0.000  -0.000   0.000   0.000  -0.000   0.000  -0.000  -0.000   0.000   0.000
  0.000  -0.000  -0.000   0.000   0.000   0.000  -0.000  -0.000   0.000  -0.000   0.000  -0.000   0.000   0.000   0.000  -0.000
  0.000   0.000   0.000  -0.000   0.000  -0.000  -0.000  -0.000  -0.000  -0.000  -0.000   0.000  -0.000   0.000  -0.000   0.000
 -0.000   0.000   0.000   0.000   0.000  -0.000  -0.000   0.000  -0.000  -0.000   0.000  -0.000  -0.000   0.000   0.000  -0.000
 -0.000   0.000   0.000  -0.000  -0.000   0.000   0.000   0.000   0.000   0.000   0.000  -0.000   0.000  -0.000  -0.000   0.000


------------------------ aborting loop because EDIFF is reached ----------------------------------------


    CHARGE:  cpu time      0.0292: real time      0.0294
    FORLOC:  cpu time      0.0005: real time      0.0005
    FORNL :  cpu time      0.3345: real time      0.3363
    STRESS:  cpu time      1.1486: real time      1.1560
    FORCOR:  cpu time      0.0073: real time      0.0073
    FORHAR:  cpu time      0.0011: real time      0.0011
    MIXING:  cpu time      0.0004: real time      0.0004
    OFIELD:  cpu time      0.0000: real time      0.0000

  FORCE on cell =-STRESS in cart. coord.  units (eV):
  Direction    XX          YY          ZZ          XY          YZ          ZX
  --------------------------------------------------------------------------------------
  Alpha Z   379.44387   379.44387   379.44387
  Ewald   -3189.84035 -3192.56180 -2578.64970    -2.91028     3.00773    -3.98760
  Hartree   917.78700   917.33874  1303.04857    -0.44662     1.19280    -2.13006
  E(xc)    -626.13706  -626.15336  -625.68106    -0.01809    -0.00032     0.00283
  Local    -520.64785  -518.17016 -1485.45709     2.46482    -4.05495     6.24170
  n-local   343.84732   343.89363   340.83166     0.00910     0.13032    -0.13594
  augment  1491.31275  1491.52936  1472.96217     0.42225    -0.09006    -0.00855
  Kinetic  1204.27618  1204.71371  1193.54158     0.48236    -0.16176    -0.00593
  Fock        0.00000     0.00000     0.00000     0.00000     0.00000     0.00000
  -------------------------------------------------------------------------------------
  Total       0.04186     0.03398     0.03999     0.00353     0.02375    -0.02357
  in kB       0.33114     0.26877     0.31630     0.02794     0.18790    -0.18642
  external pressure =        0.31 kB  Pullay stress =        0.00 kB


 VOLUME and BASIS-vectors are now :
 -----------------------------------------------------------------------------
  energy-cutoff  :      520.00
  volume of cell :      202.54
      direct lattice vectors                 reciprocal lattice vectors
     2.871218197 -4.962106480  0.005254755     0.174332934 -0.100653422 -0.000169559
     2.861794671  4.956666252 -0.002116877     0.174524193  0.100984719 -0.000020542
     0.003886830 -0.005268258  7.123613395    -0.000076735  0.000104256  0.140378315

  length of vectors
     5.732924408  5.723496619  7.123616403     0.201303532  0.201634838  0.140378375


 FORCES acting on ions
    electron-ion (+dipol)            ewald-force                    non-local-force                 convergence-correction
 -----------------------------------------------------------------------------------------------
   0.594E+02 -.102E+03 0.314E+00   -.603E+02 0.103E+03 -.278E+00   0.832E+00 -.141E+01 -.310E-01   0.126E-02 -.178E-02 -.391E-02
   0.586E+02 0.101E+03 0.171E+00   -.593E+02 -.103E+03 -.179E+00   0.790E+00 0.140E+01 -.738E-03   0.153E-02 0.298E-02 0.796E-02
   -.118E+03 0.410E+00 -.507E+00   0.120E+03 -.442E+00 0.468E+00   -.162E+01 0.333E-01 0.373E-01   -.151E-02 -.438E-04 0.197E-03
   0.594E+02 -.102E+03 0.302E+00   -.603E+02 0.103E+03 -.260E+00   0.832E+00 -.141E+01 -.311E-01   0.851E-03 -.870E-04 -.847E-02
   0.586E+02 0.101E+03 0.164E+00   -.594E+02 -.103E+03 -.163E+00   0.790E+00 0.140E+01 -.451E-03   0.928E-03 -.249E-02 -.137E-02
   -.118E+03 0.427E+00 -.519E+00   0.120E+03 -.459E+00 0.490E+00   -.162E+01 0.332E-01 0.374E-01   0.161E-02 0.101E-02 -.924E-02
   0.594E+02 -.102E+03 0.302E+00   -.603E+02 0.103E+03 -.271E+00   0.832E+00 -.141E+01 -.313E-01   0.216E-02 0.262E-03 0.127E-02
   0.585E+02 0.101E+03 0.166E+00   -.593E+02 -.103E+03 -.175E+00   0.790E+00 0.140E+01 -.702E-03   0.148E-02 -.256E-02 0.851E-02
   -.118E+03 0.416E+00 -.515E+00   0.120E+03 -.445E+00 0.471E+00   -.162E+01 0.336E-01 0.369E-01   0.472E-02 -.240E-02 0.526E-02
   0.599E+00 -.268E+00 0.124E+03   -.619E+00 0.340E+00 -.128E+03   0.209E-01 -.800E-01 0.399E+01   -.447E-03 0.584E-02 0.506E-02
   -.648E+00 0.332E+00 -.124E+03   0.642E+00 -.381E+00 0.128E+03   0.668E-02 0.490E-01 -.395E+01   -.149E-02 -.190E-02 -.478E-02
   0.607E+00 -.265E+00 0.124E+03   -.628E+00 0.342E+00 -.128E+03   0.203E-01 -.799E-01 0.399E+01   0.759E-03 0.116E-02 -.276E-02
   -.640E+00 0.327E+00 -.124E+03   0.636E+00 -.375E+00 0.127E+03   0.619E-02 0.494E-01 -.395E+01   -.308E-02 -.285E-02 0.136E-02
   0.605E+00 -.262E+00 0.124E+03   -.627E+00 0.339E+00 -.128E+03   0.203E-01 -.803E-01 0.399E+01   0.206E-02 0.121E-02 -.342E-02
   -.644E+00 0.332E+00 -.124E+03   0.635E+00 -.380E+00 0.128E+03   0.625E-02 0.489E-01 -.395E+01   0.241E-02 -.335E-02 0.446E-02
 -----------------------------------------------------------------------------------------------
   -.864E-01 0.214E-01 -.140E+00   0.817E-13 0.138E-13 -.142E-12   0.734E-01 -.158E-01 0.140E+00   0.132E-01 -.500E-02 0.120E-03
 
 
 POSITION                                       TOTAL-FORCE (eV/Angst)
 -----------------------------------------------------------------------------------
      2.13649     -0.38968      5.93731         0.000006      0.001949      0.001143
      2.13747     -2.93373      5.94042        -0.001901      0.000186     -0.000906
      4.33851     -1.66098      5.94001         0.002264      0.001584     -0.001592
      2.13074      2.92012      1.18575         0.000240      0.001750      0.001871
      2.13172      0.37603      1.18887        -0.002145      0.000619     -0.000119
      4.33273      1.64880      1.18842         0.002430      0.001304     -0.000852
      2.13831     -3.69413      3.56520         0.000138      0.001572      0.001392
      2.12983      3.68049      3.56097        -0.002158      0.000162     -0.000771
      1.46913     -0.00339      3.56267         0.002257      0.001690     -0.001634
      2.86997     -1.65592      4.19731         0.000613     -0.001896     -0.000928
      2.87027     -1.65562      0.55706        -0.000455     -0.001717      0.001943
      2.86817      1.64856      6.56948         0.000169     -0.001713     -0.002369
      2.86844      1.64885      2.92914        -0.000872     -0.001369      0.001900
      0.00064      0.00170      1.82009         0.000133     -0.002208     -0.002352
      0.00481     -0.00326      5.30323        -0.000718     -0.001911      0.003275
 -----------------------------------------------------------------------------------
    total drift:                                0.000317      0.000647     -0.000008


--------------------------------------------------------------------------------------------------------



  FREE ENERGIE OF THE ION-ELECTRON SYSTEM (eV)
  ---------------------------------------------------
  free  energy   TOTEN  =       -79.69460082 eV

  energy  without entropy=      -79.68878411  energy(sigma->0) =      -79.69169247
 
 d Force = 0.1301193E-04[ 0.251E-05, 0.235E-04]  d Energy = 0.8658217E-04-0.736E-04
 d Force = 0.1020111E+00[ 0.102E+00, 0.102E+00]  d Ewald  =-0.2552356E+01 0.265E+01


--------------------------------------------------------------------------------------------------------


    POTLOK:  cpu time      0.3270: real time      0.3279


--------------------------------------------------------------------------------------------------------


 stress matrix after NEB project (eV)
      0.04186      0.00353     -0.02357
      0.00353      0.03398      0.02375
     -0.02357      0.02375      0.03999
  FORCES: max atom, RMS     0.003860    0.002732
  FORCE total and by dimension    0.010579    0.003275
  Stress total and by dimension    0.082279    0.041861


--------------------------------------------------------------------------------------------------------


  
 reached required accuracy - stopping structural energy minimisation
 writing wavefunctions
     LOOP+:  cpu time     39.8436: real time     40.0883
    4ORBIT:  cpu time      0.0000: real time      0.0000

 total amount of memory used by VASP MPI-rank0    73139. kBytes
=======================================================================

   base      :      30000. kBytes
   nonl-proj :      31073. kBytes
   fftplans  :        947. kBytes
   grid      :       3727. kBytes
   one-center:        466. kBytes
   wavefun   :       6926. kBytes
 
  
  
 General timing and accounting informations for this job:
 ========================================================
  
                  Total CPU time used (sec):      478.428
                            User time (sec):      477.400
                          System time (sec):        1.029
                         Elapsed time (sec):      482.137
  
                   Maximum memory used (kb):      605280.
                   Average memory used (kb):          N/A
  
                          Minor page faults:       216738
                          Major page faults:         1013
                 Voluntary context switches:         8985
