       N       E                     dE             d eps       ncg     rms          rms(c)
DAV:   1    -0.479832382397E+02   -0.47983E+02   -0.17165E-02  2304   0.841E-01    0.286E-03
RMM:   2    -0.479832387102E+02   -0.47052E-06   -0.40609E-07  1488   0.247E-03
   1 F= -.47983239E+02 E0= -.47983239E+02  d E =-.479832E+02  mag=    -0.0000
