       N       E                     dE             d eps       ncg     rms          rms(c)
DAV:   1    -0.797777555981E+02   -0.79778E+02   -0.24908E+00 24832   0.234E+01    0.308E+00
RMM:   2    -0.797725502889E+02    0.52053E-02   -0.52461E-01 14790   0.238E+00    0.240E+00
RMM:   3    -0.797454675552E+02    0.27083E-01   -0.14413E-01 14808   0.134E+00    0.159E+00
RMM:   4    -0.797323454619E+02    0.13122E-01   -0.43026E-02 15184   0.651E-01    0.329E-01
RMM:   5    -0.797321515764E+02    0.19389E-03   -0.48557E-03 14866   0.256E-01    0.179E-01
RMM:   6    -0.797319701174E+02    0.18146E-03   -0.10254E-03 15332   0.108E-01    0.349E-02
RMM:   7    -0.797319908048E+02   -0.20687E-04   -0.14998E-04 15445   0.370E-02    0.336E-02
RMM:   8    -0.797319707128E+02    0.20092E-04   -0.51896E-05 14692   0.250E-02    0.119E-02
RMM:   9    -0.797319761295E+02   -0.54168E-05   -0.16533E-05 14532   0.925E-03    0.558E-03
RMM:  10    -0.797319760162E+02    0.11337E-06   -0.13438E-06 10890   0.356E-03
   1 F= -.79731976E+02 E0= -.79731976E+02  d E =-.797320E+02  mag=     0.0000
       N       E                     dE             d eps       ncg     rms          rms(c)
DAV:   1    -0.797309359008E+02    0.10402E-02   -0.14150E-01 28224   0.506E+00    0.341E-01
RMM:   2    -0.797337768336E+02   -0.28409E-02   -0.25592E-02 14592   0.509E-01    0.401E-01
RMM:   3    -0.797323099351E+02    0.14669E-02   -0.54650E-03 14836   0.270E-01    0.843E-02
RMM:   4    -0.797323752721E+02   -0.65337E-04   -0.58252E-04 15384   0.870E-02    0.292E-02
RMM:   5    -0.797323622025E+02    0.13070E-04   -0.94192E-05 14838   0.356E-02    0.245E-02
RMM:   6    -0.797323688108E+02   -0.66084E-05   -0.15129E-05 14178   0.144E-02    0.383E-03
RMM:   7    -0.797323691158E+02   -0.30496E-06   -0.29988E-06  9841   0.597E-03
   2 F= -.79732369E+02 E0= -.79732369E+02  d E =-.393100E-03  mag=     0.0000
       N       E                     dE             d eps       ncg     rms          rms(c)
DAV:   1    -0.797323422504E+02    0.26560E-04   -0.47615E-03 29184   0.926E-01    0.637E-02
RMM:   2    -0.797325000814E+02   -0.15783E-03   -0.85285E-04 14592   0.940E-02    0.746E-02
RMM:   3    -0.797324066523E+02    0.93429E-04   -0.18552E-04 14826   0.500E-02    0.148E-02
RMM:   4    -0.797324188158E+02   -0.12164E-04   -0.19669E-05 14428   0.160E-02    0.551E-03
RMM:   5    -0.797324166657E+02    0.21500E-05   -0.29028E-06  9021   0.685E-03    0.560E-03
RMM:   6    -0.797324188976E+02   -0.22318E-05   -0.66877E-07  8006   0.324E-03    0.102E-03
RMM:   7    -0.797324188255E+02    0.72047E-07   -0.11685E-07  7639   0.122E-03
   3 F= -.79732419E+02 E0= -.79732419E+02  d E =-.442809E-03  mag=     0.0000
       N       E                     dE             d eps       ncg     rms          rms(c)
DAV:   1    -0.797322586806E+02    0.16022E-03   -0.19004E-02 26880   0.185E+00    0.125E-01
RMM:   2    -0.797327348989E+02   -0.47622E-03   -0.34391E-03 14592   0.187E-01    0.147E-01
RMM:   3    -0.797324766724E+02    0.25823E-03   -0.73341E-04 14836   0.989E-02    0.302E-02
RMM:   4    -0.797324992824E+02   -0.22610E-04   -0.77770E-05 14796   0.318E-02    0.108E-02
RMM:   5    -0.797324942444E+02    0.50380E-05   -0.11988E-05 13684   0.132E-02    0.940E-03
RMM:   6    -0.797324975239E+02   -0.32795E-05   -0.21165E-06  8805   0.552E-03    0.137E-03
RMM:   7    -0.797324972535E+02    0.27045E-06   -0.40848E-07  8362   0.243E-03
   4 F= -.79732497E+02 E0= -.79732497E+02  d E =-.521237E-03  mag=     0.0000
       N       E                     dE             d eps       ncg     rms          rms(c)
DAV:   1    -0.797317825156E+02    0.71501E-03   -0.76073E-02 27136   0.371E+00    0.250E-01
RMM:   2    -0.797333877443E+02   -0.16052E-02   -0.13755E-02 14592   0.374E-01    0.295E-01
RMM:   3    -0.797325427363E+02    0.84501E-03   -0.29430E-03 14836   0.198E-01    0.611E-02
RMM:   4    -0.797325882421E+02   -0.45506E-04   -0.31324E-04 15336   0.638E-02    0.222E-02
RMM:   5    -0.797325737530E+02    0.14489E-04   -0.46391E-05 14650   0.250E-02    0.183E-02
RMM:   6    -0.797325722700E+02    0.14831E-05   -0.84537E-06 12839   0.109E-02
   5 F= -.79732572E+02 E0= -.79732572E+02  d E =-.596254E-03  mag=    -0.0000
       N       E                     dE             d eps       ncg     rms          rms(c)
DAV:   1    -0.797323236376E+02    0.25012E-03   -0.35280E-02 26624   0.253E+00    0.169E-01
RMM:   2    -0.797327149120E+02   -0.39127E-03   -0.63561E-03 14592   0.253E-01    0.199E-01
RMM:   3    -0.797325451832E+02    0.16973E-03   -0.13487E-03 14836   0.134E-01    0.409E-02
RMM:   4    -0.797325213269E+02    0.23856E-04   -0.14281E-04 15142   0.429E-02    0.145E-02
RMM:   5    -0.797325304649E+02   -0.91380E-05   -0.22197E-05 14299   0.176E-02    0.124E-02
RMM:   6    -0.797325254413E+02    0.50236E-05   -0.36855E-06 10514   0.721E-03    0.192E-03
RMM:   7    -0.797325259582E+02   -0.51687E-06   -0.76906E-07  8496   0.317E-03
   6 F= -.79732526E+02 E0= -.79732526E+02  d E =-.549942E-03  mag=    -0.0000
       N       E                     dE             d eps       ncg     rms          rms(c)
DAV:   1    -0.797332173130E+02   -0.69187E-03   -0.25368E-02 21568   0.199E+00    0.288E-01
RMM:   2    -0.797335234205E+02   -0.30611E-03   -0.76911E-03 14592   0.289E-01    0.328E-01
RMM:   3    -0.797327038404E+02    0.81958E-03   -0.21470E-03 14598   0.170E-01    0.630E-02
RMM:   4    -0.797326510426E+02    0.52798E-04   -0.24657E-04 15313   0.523E-02    0.217E-02
RMM:   5    -0.797326574210E+02   -0.63784E-05   -0.34210E-05 14597   0.212E-02    0.122E-02
RMM:   6    -0.797326512376E+02    0.61834E-05   -0.62988E-06 12287   0.845E-03    0.257E-03
RMM:   7    -0.797326519348E+02   -0.69721E-06   -0.10868E-06  8623   0.378E-03
   7 F= -.79732652E+02 E0= -.79732652E+02  d E =-.125977E-03  mag=    -0.0000
       N       E                     dE             d eps       ncg     rms          rms(c)
DAV:   1    -0.797328990864E+02   -0.24785E-03   -0.70792E-03 24192   0.105E+00    0.152E-01
RMM:   2    -0.797328974762E+02    0.16102E-05   -0.21544E-03 14592   0.153E-01    0.174E-01
RMM:   3    -0.797327172385E+02    0.18024E-03   -0.60285E-04 14600   0.901E-02    0.334E-02
RMM:   4    -0.797326920499E+02    0.25189E-04   -0.68739E-05 14860   0.279E-02    0.116E-02
RMM:   5    -0.797326960258E+02   -0.39758E-05   -0.97068E-06 13458   0.116E-02    0.647E-03
RMM:   6    -0.797326927970E+02    0.32288E-05   -0.17643E-06  8434   0.460E-03    0.149E-03
RMM:   7    -0.797326931770E+02   -0.38005E-06   -0.33034E-07  8081   0.229E-03
   8 F= -.79732693E+02 E0= -.79732693E+02  d E =-.167219E-03  mag=     0.0000
       N       E                     dE             d eps       ncg     rms          rms(c)
DAV:   1    -0.797333667991E+02   -0.67400E-03   -0.28384E-02 21824   0.210E+00    0.304E-01
RMM:   2    -0.797337366791E+02   -0.36988E-03   -0.85911E-03 14592   0.305E-01    0.346E-01
RMM:   3    -0.797328031827E+02    0.93350E-03   -0.23974E-03 14598   0.179E-01    0.666E-02
RMM:   4    -0.797327473125E+02    0.55870E-04   -0.27663E-04 15329   0.554E-02    0.230E-02
RMM:   5    -0.797327541462E+02   -0.68336E-05   -0.38251E-05 14700   0.224E-02    0.128E-02
RMM:   6    -0.797327475634E+02    0.65828E-05   -0.70598E-06 12739   0.893E-03    0.271E-03
RMM:   7    -0.797327482894E+02   -0.72598E-06   -0.11979E-06  8659   0.395E-03
   9 F= -.79732748E+02 E0= -.79732748E+02  d E =-.222331E-03  mag=     0.0000
       N       E                     dE             d eps       ncg     rms          rms(c)
DAV:   1    -0.797347456390E+02   -0.19981E-02   -0.11333E-01 22464   0.420E+00    0.607E-01
RMM:   2    -0.797369929940E+02   -0.22474E-02   -0.34355E-02 14592   0.611E-01    0.695E-01
RMM:   3    -0.797328004877E+02    0.41925E-02   -0.95961E-03 14598   0.359E-01    0.133E-01
RMM:   4    -0.797326820839E+02    0.11840E-03   -0.11107E-03 15408   0.111E-01    0.456E-02
RMM:   5    -0.797326956599E+02   -0.13576E-04   -0.15225E-04 14822   0.443E-02    0.257E-02
RMM:   6    -0.797326818078E+02    0.13852E-04   -0.28120E-05 14712   0.176E-02    0.487E-03
RMM:   7    -0.797326830676E+02   -0.12598E-05   -0.43263E-06 11835   0.718E-03
  10 F= -.79732683E+02 E0= -.79732683E+02  d E =-.157109E-03  mag=    -0.0000
       N       E                     dE             d eps       ncg     rms          rms(c)
DAV:   1    -0.797335248600E+02   -0.84305E-03   -0.76080E-02 21632   0.343E+00    0.495E-01
RMM:   2    -0.797361607572E+02   -0.26359E-02   -0.22742E-02 14592   0.495E-01    0.567E-01
RMM:   3    -0.797327037227E+02    0.34570E-02   -0.63572E-03 14598   0.292E-01    0.110E-01
RMM:   4    -0.797327618032E+02   -0.58081E-04   -0.73153E-04 15404   0.902E-02    0.388E-02
RMM:   5    -0.797327457155E+02    0.16088E-04   -0.10283E-04 14796   0.365E-02    0.205E-02
RMM:   6    -0.797327547627E+02   -0.90471E-05   -0.18587E-05 14400   0.143E-02    0.403E-03
RMM:   7    -0.797327545971E+02    0.16558E-06   -0.27824E-06  9912   0.583E-03
  11 F= -.79732755E+02 E0= -.79732755E+02  d E =-.228639E-03  mag=    -0.0000
       N       E                     dE             d eps       ncg     rms          rms(c)
DAV:   1    -0.797327249489E+02    0.29814E-04   -0.18286E-03 23808   0.534E-01    0.777E-02
RMM:   2    -0.797328742703E+02   -0.14932E-03   -0.56347E-04 14592   0.784E-02    0.892E-02
RMM:   3    -0.797327401784E+02    0.13409E-03   -0.15810E-04 14600   0.462E-02    0.171E-02
RMM:   4    -0.797327514994E+02   -0.11321E-04   -0.17560E-05 14150   0.144E-02    0.594E-03
RMM:   5    -0.797327493966E+02    0.21028E-05   -0.26574E-06  8924   0.636E-03    0.349E-03
RMM:   6    -0.797327511097E+02   -0.17131E-05   -0.49845E-07  7943   0.264E-03
  12 F= -.79732751E+02 E0= -.79732751E+02  d E =-.225152E-03  mag=     0.0000
       N       E                     dE             d eps       ncg     rms          rms(c)
DAV:   1    -0.797328444686E+02   -0.95072E-04   -0.38013E-03 24192   0.743E-01    0.758E-02
RMM:   2    -0.797327924805E+02    0.51988E-04   -0.95033E-04 14800   0.103E-01    0.684E-02
RMM:   3    -0.797327946748E+02   -0.21943E-05   -0.18821E-04 14744   0.521E-02    0.311E-02
RMM:   4    -0.797327450787E+02    0.49596E-04   -0.33675E-05 14780   0.207E-02    0.689E-03
RMM:   5    -0.797327462380E+02   -0.11593E-05   -0.67038E-06 12146   0.875E-03
  13 F= -.79732746E+02 E0= -.79732746E+02  d E =0.487174E-05  mag=    -0.0000
