 vasp.6.4.2 20Jul23 (build Feb 15 2024 17:04:42) complex                        
  
 executed on             LinuxIFC date 2024.05.16  13:50:45
 running   64 mpi-ranks, with    1 threads/rank, on    1 nodes
 distrk:  each k-point on   64 cores,    1 groups
 distr:  one band on NCORE=   1 cores,   64 groups


--------------------------------------------------------------------------------------------------------


 INCAR:
   ISTART = 1            (Read existing wavefunction, if there)
   ISPIN = 2            (Non-Spin polarised DFT)
   LREAL = .FALSE.       (Projection operators: automatic)
   LWAVE = .TRUE.        (Write WAVECAR or not)
   LCHARG = .TRUE.        (Write CHGCAR or not)
   ADDGRID = .TRUE.        (Increase grid, helps GGA convergence)
   LASPH = .TRUE.        (Give more accurate total energies and band structure calculations)
   ENCUT = 520
   ISMEAR = 0            (Gaussian smearing, metals:1)
   SIGMA = 0.05         (Smearing value in eV, metals:0.2)
   NELM = 1000           (Max electronic SCF steps)
   NELMIN = 6            (Min electronic SCF steps)
   EDIFF = 2E-06        (SCF energy convergence, in eV)
   NSW = 10000          (Max ionic steps)
   IBRION = 2            (Algorithm: 0-MD, 1-Quasi-New, 2-CG)
   ISIF = 3            (Stress/relaxation: 2-Ions, 3-Shape/Ions/V, 4-Shape/Ions)
   EDIFFG = -0.01        (Ionic convergence, eV/AA)
   ISYM = 0            (Symmetry: 0\=none, 2\=GGA, 3\=hybrids)
   SYMPREC = 1e-4
   ALGO = N

 POTCAR:    PAW_PBE Li_sv 10Sep2004               
 POTCAR:    PAW_PBE S 06Sep2000                   
 -----------------------------------------------------------------------------
|                                                                             |
|           W    W    AA    RRRRR   N    N  II  N    N   GGGG   !!!           |
|           W    W   A  A   R    R  NN   N  II  NN   N  G    G  !!!           |
|           W    W  A    A  R    R  N N  N  II  N N  N  G       !!!           |
|           W WW W  AAAAAA  RRRRR   N  N N  II  N  N N  G  GGG   !            |
|           WW  WW  A    A  R   R   N   NN  II  N   NN  G    G                |
|           W    W  A    A  R    R  N    N  II  N    N   GGGG   !!!           |
|                                                                             |
|     You use a magnetic or noncollinear calculation, but did not specify     |
|     the initial magnetic moment with the MAGMOM tag. Note that a            |
|     default of 1 will be used for all atoms. This ferromagnetic setup       |
|     may break the symmetry of the crystal, in particular it may rule        |
|     out finding an antiferromagnetic solution. Thence, we recommend         |
|     setting the initial magnetic moment manually or verifying carefully     |
|     that this magnetic setup is desired.                                    |
|                                                                             |
 -----------------------------------------------------------------------------

 POTCAR:    PAW_PBE Li_sv 10Sep2004               
   SHA256 =  7e51fe1804c037e1dccc81a9c376d94d693a7559600c847f4b41960edb8ab895 Li_sv/POTCAR          
   COPYR  = (c) Copyright 10Sep2004 Georg Kresse                                                    
   COPYR  = This file is part of the software VASP. Any use, copying, and all other rights are regul
   COPYR  = If you do not have a valid VASP license, you may not use, copy or distribute this file. 
   VRHFIN =Li: 1s2s2p                                                                               
   LEXCH  = PE                                                                                      
   EATOM  =   202.7858 eV,   14.9043 Ry                                                             
                                                                                                    
   TITEL  = PAW_PBE Li_sv 10Sep2004                                                                 
   LULTRA =        F    use ultrasoft PP ?                                                          
   IUNSCR =        0    unscreen: 0-lin 1-nonlin 2-no                                               
   RPACOR =    0.000    partial core radius                                                         
   POMASS =    7.010; ZVAL   =    3.000    mass and valenz                                          
   RCORE  =    1.700    outmost cutoff radius                                                       
   RWIGS  =    2.050; RWIGS  =    1.085    wigner-seitz radius (au A)                               
   ENMAX  =  499.034; ENMIN  =  374.276 eV                                                          
   ICORE  =        2    local potential                                                             
   LCOR   =        T    correct aug charges                                                         
   LPAW   =        T    paw PP                                                                      
   EAUG   =  628.945                                                                                
   RMAX   =    1.732    core radius for proj-oper                                                   
   RAUG   =    1.300    factor for augmentation sphere                                              
   RDEP   =    1.728    radius for radial grids                                                     
   RDEPT  =    1.329    core radius for aug-charge                                                  
                                                                                                    
   Atomic configuration                                                                             
    4 entries                                                                                       
     n  l   j            E        occ.                                                              
     1  0  0.50       -51.8549   2.0000                                                             
     2  0  0.50        -2.8742   1.0000                                                             
     2  1  0.50        -1.3606   0.0000                                                             
     3  2  1.50        -1.3606   0.0000                                                             
   Description                                                                                      
     l       E           TYP  RCUT    TYP  RCUT                                                     
     0    -51.8548813     23  1.400                                                                 
     0     -2.8742052     23  1.700                                                                 
     1     -1.3605826     23  1.400                                                                 
     2     -1.3605826     23  1.400                                                                 
  local pseudopotential read in
  atomic valenz-charges read in
  non local Contribution for L=           0  read in
    real space projection operators read in
  non local Contribution for L=           0  read in
    real space projection operators read in
  non local Contribution for L=           1  read in
    real space projection operators read in
    PAW grid and wavefunctions read in
 
   number of l-projection  operators is LMAX  =           3
   number of lm-projection operators is LMMAX =           5
 
 POTCAR:    PAW_PBE S 06Sep2000                   
   SHA256 =  0fc7481fb0695f01bdc6462160264c5c84044ae9ec85a907d398b887a2bc3132 S/POTCAR              
   COPYR  = (c) Copyright 06Sep2000 Georg Kresse                                                    
   COPYR  = This file is part of the software VASP. Any use, copying, and all other rights are regul
   COPYR  = If you do not have a valid VASP license, you may not use, copy or distribute this file. 
   VRHFIN =S : s2p4                                                                                 
   LEXCH  = PE                                                                                      
   EATOM  =   276.8230 eV,   20.3459 Ry                                                             
                                                                                                    
   TITEL  = PAW_PBE S 06Sep2000                                                                     
   LULTRA =        F    use ultrasoft PP ?                                                          
   IUNSCR =        1    unscreen: 0-lin 1-nonlin 2-no                                               
   RPACOR =    1.500    partial core radius                                                         
   POMASS =   32.066; ZVAL   =    6.000    mass and valenz                                          
   RCORE  =    1.900    outmost cutoff radius                                                       
   RWIGS  =    2.200; RWIGS  =    1.164    wigner-seitz radius (au A)                               
   ENMAX  =  258.689; ENMIN  =  194.016 eV                                                          
   ICORE  =        2    local potential                                                             
   LCOR   =        T    correct aug charges                                                         
   LPAW   =        T    paw PP                                                                      
   EAUG   =  335.092                                                                                
   DEXC   =    0.000                                                                                
   RMAX   =    1.942    core radius for proj-oper                                                   
   RAUG   =    1.300    factor for augmentation sphere                                              
   RDEP   =    1.954    radius for radial grids                                                     
   RDEPT  =    1.744    core radius for aug-charge                                                  
                                                                                                    
   Atomic configuration                                                                             
    6 entries                                                                                       
     n  l   j            E        occ.                                                              
     1  0  0.50     -2405.8406   2.0000                                                             
     2  0  0.50      -211.7007   2.0000                                                             
     2  1  1.50      -156.4958   6.0000                                                             
     3  0  0.50       -17.2562   2.0000                                                             
     3  1  0.50        -7.0085   4.0000                                                             
     3  2  1.50        -6.8029   0.0000                                                             
   Description                                                                                      
     l       E           TYP  RCUT    TYP  RCUT                                                     
     0    -17.2561641     23  1.900                                                                 
     0    -15.8743224     23  1.900                                                                 
     1     -7.0085400     23  1.900                                                                 
     1     -2.7779785     23  1.900                                                                 
     2     -6.8029130     23  1.900                                                                 
  local pseudopotential read in
  partial core-charges read in
  partial kinetic energy density read in
  atomic valenz-charges read in
  non local Contribution for L=           0  read in
    real space projection operators read in
  non local Contribution for L=           0  read in
    real space projection operators read in
  non local Contribution for L=           1  read in
    real space projection operators read in
  non local Contribution for L=           1  read in
    real space projection operators read in
    PAW grid and wavefunctions read in
 
   number of l-projection  operators is LMAX  =           4
   number of lm-projection operators is LMMAX =           8
 
  PAW_PBE Li_sv 10Sep2004               :
 energy of atom  1       EATOM= -202.7858
 kinetic energy error for atom=    0.0130 (will be added to EATOM!!)
  PAW_PBE S 06Sep2000                   :
 energy of atom  2       EATOM= -276.8230
 kinetic energy error for atom=    0.0016 (will be added to EATOM!!)
 
 
 POSCAR: Li8 S4
  positions in direct lattice
  No initial velocities read in
 exchange correlation table for  LEXCH =        8
   RHO(1)=    0.500       N(1)  =     2000
   RHO(2)=  100.500       N(2)  =     4000

 VTST: version 4.1, (05/19/21)

 CHAIN: initializing optimizer
 
 OPT: Using VASP Conjugate-Gradient optimizer
 CHAIN: Read ICHAIN            0
 
 POSCAR: Li8 S4
  positions in direct lattice
  No initial velocities read in
 


--------------------------------------------------------------------------------------------------------


 ion  position               nearest neighbor table
   1  0.750  0.250  0.250-   9 2.46  11 2.46  12 2.46  10 2.46
   2  0.250  0.750  0.750-   9 2.46  11 2.46  12 2.46  10 2.46
   3  0.750  0.750  0.750-  10 2.46  11 2.46  12 2.46   9 2.46
   4  0.250  0.250  0.250-  10 2.46  11 2.46  12 2.46   9 2.46
   5  0.250  0.250  0.750-   9 2.46  10 2.46  11 2.46  12 2.46
   6  0.750  0.750  0.250-   9 2.46  10 2.46  11 2.46  12 2.46
   7  0.250  0.750  0.250-   9 2.46  10 2.46  12 2.46  11 2.46
   8  0.750  0.250  0.750-   9 2.46  10 2.46  12 2.46  11 2.46
   9  0.000  0.000  0.000-   1 2.46   2 2.46   5 2.46   6 2.46   7 2.46   8 2.46   3 2.46   4 2.46

  10  0.000  0.500  0.500-   3 2.46   4 2.46   5 2.46   6 2.46   7 2.46   8 2.46   1 2.46   2 2.46

  11  0.500  0.000  0.500-   1 2.46   2 2.46   3 2.46   4 2.46   5 2.46   6 2.46   7 2.46   8 2.46

  12  0.500  0.500  0.000-   1 2.46   2 2.46   3 2.46   4 2.46   7 2.46   8 2.46   5 2.46   6 2.46

 

IMPORTANT INFORMATION: All symmetrisations will be switched off!
NOSYMM: (Re-)initialisation of all symmetry stuff for point group C_1.


----------------------------------------------------------------------------------------

                                     Primitive cell                                     

  volume of cell :     184.4211

  direct lattice vectors                    reciprocal lattice vectors
     5.692069609  0.000000000  0.000000000     0.175683024 -0.000000000  0.000000000
     0.000000000  5.692069609  0.000000000     0.000000000  0.175683024  0.000000000
     0.000000000  0.000000000  5.692069609    -0.000000000 -0.000000000  0.175683024

  length of vectors
     5.692069609  5.692069609  5.692069609     0.175683024  0.175683024  0.175683024

  position of ions in fractional coordinates (direct lattice)
     0.750000000  0.250000000  0.250000000
     0.250000000  0.750000000  0.750000000
     0.750000000  0.750000000  0.750000000
     0.250000000  0.250000000  0.250000000
     0.250000000  0.250000000  0.750000000
     0.750000000  0.750000000  0.250000000
     0.250000000  0.750000000  0.250000000
     0.750000000  0.250000000  0.750000000
     0.000000000  0.000000000  0.000000000
     0.000000000  0.500000000  0.500000000
     0.500000000  0.000000000  0.500000000
     0.500000000  0.500000000  1.000000000

  ion indices of the primitive-cell ions
   primitive index   ion index
                 1           1
                 2           2
                 3           3
                 4           4
                 5           5
                 6           6
                 7           7
                 8           8
                 9           9
                10          10
                11          11
                12          12

----------------------------------------------------------------------------------------

 
 
 KPOINTS: egular 4 x 4 x 4 mesh centered at Gamma 

Automatic generation of k-mesh.
 Grid dimensions read from file:
 generate k-points for:    4    4    4

 Generating k-lattice:

  Cartesian coordinates                     Fractional coordinates (reciprocal lattice)
     0.043920756 -0.000000000  0.000000000     0.250000000  0.000000000  0.000000000
     0.000000000  0.043920756  0.000000000     0.000000000  0.250000000  0.000000000
    -0.000000000 -0.000000000  0.043920756    -0.000000000 -0.000000000  0.250000000

  Length of vectors
     0.043920756  0.043920756  0.043920756

  Shift w.r.t. Gamma in fractional coordinates (k-lattice)
     0.000000000  0.000000000  0.000000000

 
 Subroutine IBZKPT returns following result:
 ===========================================
 
 Found     36 irreducible k-points:
 
 Following reciprocal coordinates:
            Coordinates               Weight
  0.000000  0.000000  0.000000      1.000000
  0.250000 -0.000000  0.000000      2.000000
  0.000000  0.250000  0.000000      2.000000
 -0.000000 -0.000000  0.250000      2.000000
  0.500000 -0.000000  0.000000      1.000000
  0.000000  0.500000  0.000000      1.000000
 -0.000000 -0.000000  0.500000      1.000000
  0.250000  0.250000  0.000000      2.000000
 -0.000000  0.250000  0.250000      2.000000
  0.250000 -0.000000  0.250000      2.000000
 -0.250000  0.250000  0.000000      2.000000
 -0.250000  0.000000  0.250000      2.000000
 -0.000000 -0.250000  0.250000      2.000000
  0.500000  0.250000  0.000000      2.000000
 -0.000000  0.500000  0.250000      2.000000
  0.250000 -0.000000  0.500000      2.000000
 -0.250000  0.500000  0.000000      2.000000
  0.500000 -0.000000  0.250000      2.000000
 -0.000000  0.250000  0.500000      2.000000
  0.500000  0.500000  0.000000      1.000000
 -0.000000  0.500000  0.500000      1.000000
  0.500000 -0.000000  0.500000      1.000000
  0.250000  0.250000  0.250000      2.000000
 -0.250000  0.250000  0.250000      2.000000
 -0.250000 -0.250000  0.250000      2.000000
  0.250000 -0.250000  0.250000      2.000000
  0.500000  0.250000  0.250000      2.000000
  0.250000  0.500000  0.250000      2.000000
  0.250000  0.250000  0.500000      2.000000
 -0.250000  0.500000  0.250000      2.000000
 -0.250000  0.250000  0.500000      2.000000
  0.500000 -0.250000  0.250000      2.000000
  0.500000  0.500000  0.250000      2.000000
  0.250000  0.500000  0.500000      2.000000
  0.500000  0.250000  0.500000      2.000000
  0.500000  0.500000  0.500000      1.000000
 
 Following cartesian coordinates:
            Coordinates               Weight
  0.000000  0.000000  0.000000      1.000000
  0.043921 -0.000000  0.000000      2.000000
  0.000000  0.043921  0.000000      2.000000
 -0.000000 -0.000000  0.043921      2.000000
  0.087842 -0.000000  0.000000      1.000000
  0.000000  0.087842  0.000000      1.000000
 -0.000000 -0.000000  0.087842      1.000000
  0.043921  0.043921  0.000000      2.000000
 -0.000000  0.043921  0.043921      2.000000
  0.043921 -0.000000  0.043921      2.000000
 -0.043921  0.043921  0.000000      2.000000
 -0.043921  0.000000  0.043921      2.000000
 -0.000000 -0.043921  0.043921      2.000000
  0.087842  0.043921  0.000000      2.000000
 -0.000000  0.087842  0.043921      2.000000
  0.043921 -0.000000  0.087842      2.000000
 -0.043921  0.087842  0.000000      2.000000
  0.087842 -0.000000  0.043921      2.000000
 -0.000000  0.043921  0.087842      2.000000
  0.087842  0.087842  0.000000      1.000000
 -0.000000  0.087842  0.087842      1.000000
  0.087842 -0.000000  0.087842      1.000000
  0.043921  0.043921  0.043921      2.000000
 -0.043921  0.043921  0.043921      2.000000
 -0.043921 -0.043921  0.043921      2.000000
  0.043921 -0.043921  0.043921      2.000000
  0.087842  0.043921  0.043921      2.000000
  0.043921  0.087842  0.043921      2.000000
  0.043921  0.043921  0.087842      2.000000
 -0.043921  0.087842  0.043921      2.000000
 -0.043921  0.043921  0.087842      2.000000
  0.087842 -0.043921  0.043921      2.000000
  0.087842  0.087842  0.043921      2.000000
  0.043921  0.087842  0.087842      2.000000
  0.087842  0.043921  0.087842      2.000000
  0.087842  0.087842  0.087842      1.000000
 


--------------------------------------------------------------------------------------------------------




 Dimension of arrays:
   k-points           NKPTS =     36   k-points in BZ     NKDIM =     36   number of bands    NBANDS=     64
   number of dos      NEDOS =    301   number of ions     NIONS =     12
   non local maximal  LDIM  =      4   non local SUM 2l+1 LMDIM =      8
   total plane-waves  NPLWV =  32768
   max r-space proj   IRMAX =      1   max aug-charges    IRDMAX=  44977
   dimension x,y,z NGX =    32 NGY =   32 NGZ =   32
   dimension x,y,z NGXF=    64 NGYF=   64 NGZF=   64
   support grid    NGXF=   128 NGYF=  128 NGZF=  128
   ions per type =               8   4
   NGX,Y,Z   is equivalent  to a cutoff of   9.35,  9.35,  9.35 a.u.
   NGXF,Y,Z  is equivalent  to a cutoff of  18.69, 18.69, 18.69 a.u.

 SYSTEM =  unknown system                          
 POSCAR =  Li8 S4                                  

 Startparameter for this run:
   NWRITE =      2    write-flag & timer
   PREC   = normal    normal or accurate (medium, high low for compatibility)
   ISTART =      1    job   : 0-new  1-cont  2-samecut
   ICHARG =      0    charge: 1-file 2-atom 10-const
   ISPIN  =      2    spin polarized calculation?
   LNONCOLLINEAR =      F non collinear calculations
   LSORBIT =      F    spin-orbit coupling
   INIWAV =      1    electr: 0-lowe 1-rand  2-diag
   LASPH  =      T    aspherical Exc in radial PAW
 Electronic Relaxation 1
   ENCUT  =  520.0 eV  38.22 Ry    6.18 a.u.  10.58 10.58 10.58*2*pi/ulx,y,z
   ENINI  =  520.0     initial cutoff
   ENAUG  =  628.9 eV  augmentation charge cutoff
   NELM   =   1000;   NELMIN=  6; NELMDL=  0     # of ELM steps 
   EDIFF  = 0.2E-05   stopping-criterion for ELM
   LREAL  =      F    real-space projection
   NLSPLINE    = F    spline interpolate recip. space projectors
   LCOMPAT=      F    compatible to vasp.4.4
   GGA_COMPAT  = T    GGA compatible to vasp.4.4-vasp.4.6
   LMAXPAW     = -100 max onsite density
   LMAXMIX     =    2 max onsite mixed and CHGCAR
   VOSKOWN=      0    Vosko Wilk Nusair interpolation
   ROPT   =    0.00000   0.00000
 Ionic relaxation
   EDIFFG = -.1E-01   stopping-criterion for IOM
   NSW    =  10000    number of steps for IOM
   NBLOCK =      1;   KBLOCK =  10000    inner block; outer block 
   IBRION =      2    ionic relax: 0-MD 1-quasi-New 2-CG
   NFREE  =      1    steps in history (QN), initial steepest desc. (CG)
   ISIF   =      3    stress and relaxation
   IWAVPR =     11    prediction:  0-non 1-charg 2-wave 3-comb
   ISYM   =      0    0-nonsym 1-usesym 2-fastsym
   LCORR  =      T    Harris-Foulkes like correction to forces

   POTIM  = 0.5000    time-step for ionic-motion
   TEIN   =    0.0    initial temperature
   TEBEG  =    0.0;   TEEND  =   0.0 temperature during run
   SMASS  =  -3.00    Nose mass-parameter (am)
   estimated Nose-frequenzy (Omega)   =  0.10E-29 period in steps = 0.13E+47 mass=  -0.740E-27a.u.
   SCALEE = 1.0000    scale energy and forces
   NPACO  =    256;   APACO  = 10.0  distance and # of slots for P.C.
   PSTRESS=    0.0 pullay stress

  Mass of Ions in am
   POMASS =   7.01 32.07
  Ionic Valenz
   ZVAL   =   3.00  6.00
  Atomic Wigner-Seitz radii
   RWIGS  =  -1.00 -1.00
  virtual crystal weights 
   VCA    =   1.00  1.00
   NELECT =      48.0000    total number of electrons
   NUPDOWN=      -1.0000    fix difference up-down

 DOS related values:
   EMIN   =  10.00;   EMAX   =-10.00  energy-range for DOS
   EFERMI =   0.00;   METHOD = LEGACY      
   ISMEAR =     0;   SIGMA  =   0.05  broadening in eV -4-tet -1-fermi 0-gaus

 Electronic relaxation 2 (details)
   IALGO  =     38    algorithm
   LDIAG  =      T    sub-space diagonalisation (order eigenvalues)
   LSUBROT=      F    optimize rotation matrix (better conditioning)
   TURBO    =      0    0=normal 1=particle mesh
   IRESTART =      0    0=no restart 2=restart with 2 vectors
   NREBOOT  =      0    no. of reboots
   NMIN     =      0    reboot dimension
   EREF     =   0.00    reference energy to select bands
   IMIX   =      4    mixing-type and parameters
     AMIX     =   0.40;   BMIX     =  1.00
     AMIX_MAG =   1.60;   BMIX_MAG =  1.00
     AMIN     =   0.10
     WC   =   100.;   INIMIX=   1;  MIXPRE=   1;  MAXMIX= -45

 Intra band minimization:
   WEIMIN = 0.0010     energy-eigenvalue tresh-hold
   EBREAK =  0.78E-08  absolut break condition
   DEPER  =   0.30     relativ break condition  

   TIME   =   0.40     timestep for ELM

  volume/ion in A,a.u.               =      15.37       103.71
  Fermi-wavevector in a.u.,A,eV,Ry     =   1.045246  1.975228 14.864889  1.092538
  Thomas-Fermi vector in A             =   2.180033
 
 Write flags
   LWAVE        =      T    write WAVECAR
   LDOWNSAMPLE  =      F    k-point downsampling of WAVECAR
   LCHARG       =      T    write CHGCAR
   LVTOT        =      F    write LOCPOT, total local potential
   LVHAR        =      F    write LOCPOT, Hartree potential only
   LELF         =      F    write electronic localiz. function (ELF)
   LORBIT       =      0    0 simple, 1 ext, 2 COOP (PROOUT), +10 PAW based schemes


 Dipole corrections
   LMONO  =      F    monopole corrections only (constant potential shift)
   LDIPOL =      F    correct potential (dipole corrections)
   IDIPOL =      0    1-x, 2-y, 3-z, 4-all directions 
   EPSILON=  1.0000000 bulk dielectric constant

 Exchange correlation treatment:
   GGA     =    --    GGA type
   LEXCH   =     8    internal setting for exchange type
   LIBXC   =     F    Libxc                    
   VOSKOWN =     0    Vosko Wilk Nusair interpolation
   LHFCALC =     F    Hartree Fock is set to
   LHFONE  =     F    Hartree Fock one center treatment
   AEXX    =    0.0000 exact exchange contribution

 Linear response parameters
   LEPSILON=     F    determine dielectric tensor
   LRPA    =     F    only Hartree local field effects (RPA)
   LNABLA  =     F    use nabla operator in PAW spheres
   LVEL    =     F    velocity operator in full k-point grid
   CSHIFT  =0.1000    complex shift for real part using Kramers Kronig
   OMEGAMAX=  -1.0    maximum frequency
   DEG_THRESHOLD= 0.2000000E-02 threshold for treating states as degnerate
   RTIME   =   -0.100 relaxation time in fs
  (WPLASMAI=    0.000 imaginary part of plasma frequency in eV, 0.658/RTIME)
   DFIELD  = 0.0000000 0.0000000 0.0000000 field for delta impulse in time
 
  Optional k-point grid parameters
   LKPOINTS_OPT  =     F    use optional k-point grid
   KPOINTS_OPT_MODE=     1    mode for optional k-point grid
 
 Orbital magnetization related:
   ORBITALMAG=     F  switch on orbital magnetization
   LCHIMAG   =     F  perturbation theory with respect to B field
   DQ        =  0.001000  dq finite difference perturbation B field
   LLRAUG    =     F  two centre corrections for induced B field
   LBONE     =     F  B-component reconstruction in AE one-centre
   LVGVCALC  =     T  calculate vGv susceptibility
   LVGVAPPL  =     F  apply vGv susceptibility instead of pGv for G=0

 Random number generation:
   RANDOM_GENERATOR = DEFAULT
   PCG_SEED         = not used


--------------------------------------------------------------------------------------------------------


 conjugate gradient relaxation of ions
 charge density and potential will be updated during run
 spin polarized calculation
 Variant of blocked Davidson
 Davidson routine will perform the subspace rotation
 perform sub-space diagonalisation
    after iterative eigenvector-optimisation
 modified Broyden-mixing scheme, WC =      100.0
 initial mixing is a Kerker type mixing with AMIX =  0.4000 and BMIX =      1.0000
 Hartree-type preconditioning will be used
 using additional bands           40
 reciprocal scheme for non local part
 use partial core corrections
 calculate Harris-corrections to forces 
   (improved forces if not selfconsistent)
 use gradient corrections 
 use of overlap-Matrix (Vanderbilt PP)
 Gauss-broadening in eV      SIGMA  =   0.05


--------------------------------------------------------------------------------------------------------


  energy-cutoff  :      520.00
  volume of cell :      184.42
      direct lattice vectors                 reciprocal lattice vectors
     5.692069609  0.000000000  0.000000000     0.175683024 -0.000000000  0.000000000
     0.000000000  5.692069609  0.000000000     0.000000000  0.175683024  0.000000000
     0.000000000  0.000000000  5.692069609    -0.000000000 -0.000000000  0.175683024

  length of vectors
     5.692069609  5.692069609  5.692069609     0.175683024  0.175683024  0.175683024


 
 old parameters found on file WAVECAR:
  energy-cutoff  :      520.00
  volume of cell :      184.42
      direct lattice vectors                 reciprocal lattice vectors
     5.692069609  0.000000000  0.000000000     0.175683024 -0.000000000  0.000000000
     0.000000000  5.692069609  0.000000000     0.000000000  0.175683024  0.000000000
     0.000000000  0.000000000  5.692069609    -0.000000000 -0.000000000  0.175683024

  length of vectors

 
 k-points in units of 2pi/SCALE and weight: egular 4 x 4 x 4 mesh centered at Gamma 
   0.00000000  0.00000000  0.00000000       0.016
   0.04392076 -0.00000000  0.00000000       0.031
   0.00000000  0.04392076  0.00000000       0.031
  -0.00000000 -0.00000000  0.04392076       0.031
   0.08784151 -0.00000000  0.00000000       0.016
   0.00000000  0.08784151  0.00000000       0.016
  -0.00000000 -0.00000000  0.08784151       0.016
   0.04392076  0.04392076  0.00000000       0.031
  -0.00000000  0.04392076  0.04392076       0.031
   0.04392076 -0.00000000  0.04392076       0.031
  -0.04392076  0.04392076  0.00000000       0.031
  -0.04392076  0.00000000  0.04392076       0.031
  -0.00000000 -0.04392076  0.04392076       0.031
   0.08784151  0.04392076  0.00000000       0.031
  -0.00000000  0.08784151  0.04392076       0.031
   0.04392076 -0.00000000  0.08784151       0.031
  -0.04392076  0.08784151  0.00000000       0.031
   0.08784151 -0.00000000  0.04392076       0.031
  -0.00000000  0.04392076  0.08784151       0.031
   0.08784151  0.08784151  0.00000000       0.016
  -0.00000000  0.08784151  0.08784151       0.016
   0.08784151 -0.00000000  0.08784151       0.016
   0.04392076  0.04392076  0.04392076       0.031
  -0.04392076  0.04392076  0.04392076       0.031
  -0.04392076 -0.04392076  0.04392076       0.031
   0.04392076 -0.04392076  0.04392076       0.031
   0.08784151  0.04392076  0.04392076       0.031
   0.04392076  0.08784151  0.04392076       0.031
   0.04392076  0.04392076  0.08784151       0.031
  -0.04392076  0.08784151  0.04392076       0.031
  -0.04392076  0.04392076  0.08784151       0.031
   0.08784151 -0.04392076  0.04392076       0.031
   0.08784151  0.08784151  0.04392076       0.031
   0.04392076  0.08784151  0.08784151       0.031
   0.08784151  0.04392076  0.08784151       0.031
   0.08784151  0.08784151  0.08784151       0.016
 
 k-points in reciprocal lattice and weights: egular 4 x 4 x 4 mesh centered at Gamma 
   0.00000000  0.00000000  0.00000000       0.016
   0.25000000 -0.00000000  0.00000000       0.031
   0.00000000  0.25000000  0.00000000       0.031
  -0.00000000 -0.00000000  0.25000000       0.031
   0.50000000 -0.00000000  0.00000000       0.016
   0.00000000  0.50000000  0.00000000       0.016
  -0.00000000 -0.00000000  0.50000000       0.016
   0.25000000  0.25000000  0.00000000       0.031
  -0.00000000  0.25000000  0.25000000       0.031
   0.25000000 -0.00000000  0.25000000       0.031
  -0.25000000  0.25000000  0.00000000       0.031
  -0.25000000  0.00000000  0.25000000       0.031
  -0.00000000 -0.25000000  0.25000000       0.031
   0.50000000  0.25000000  0.00000000       0.031
  -0.00000000  0.50000000  0.25000000       0.031
   0.25000000 -0.00000000  0.50000000       0.031
  -0.25000000  0.50000000  0.00000000       0.031
   0.50000000 -0.00000000  0.25000000       0.031
  -0.00000000  0.25000000  0.50000000       0.031
   0.50000000  0.50000000  0.00000000       0.016
  -0.00000000  0.50000000  0.50000000       0.016
   0.50000000 -0.00000000  0.50000000       0.016
   0.25000000  0.25000000  0.25000000       0.031
  -0.25000000  0.25000000  0.25000000       0.031
  -0.25000000 -0.25000000  0.25000000       0.031
   0.25000000 -0.25000000  0.25000000       0.031
   0.50000000  0.25000000  0.25000000       0.031
   0.25000000  0.50000000  0.25000000       0.031
   0.25000000  0.25000000  0.50000000       0.031
  -0.25000000  0.50000000  0.25000000       0.031
  -0.25000000  0.25000000  0.50000000       0.031
   0.50000000 -0.25000000  0.25000000       0.031
   0.50000000  0.50000000  0.25000000       0.031
   0.25000000  0.50000000  0.50000000       0.031
   0.50000000  0.25000000  0.50000000       0.031
   0.50000000  0.50000000  0.50000000       0.016
 
 position of ions in fractional coordinates (direct lattice) 
   0.75000000  0.25000000  0.25000000
   0.25000000  0.75000000  0.75000000
   0.75000000  0.75000000  0.75000000
   0.25000000  0.25000000  0.25000000
   0.25000000  0.25000000  0.75000000
   0.75000000  0.75000000  0.25000000
   0.25000000  0.75000000  0.25000000
   0.75000000  0.25000000  0.75000000
   0.00000000  0.00000000  0.00000000
   0.00000000  0.50000000  0.50000000
   0.50000000  0.00000000  0.50000000
   0.50000000  0.50000000  0.00000000
 
 position of ions in cartesian coordinates  (Angst):
   4.26905221  1.42301740  1.42301740
   1.42301740  4.26905221  4.26905221
   4.26905221  4.26905221  4.26905221
   1.42301740  1.42301740  1.42301740
   1.42301740  1.42301740  4.26905221
   4.26905221  4.26905221  1.42301740
   1.42301740  4.26905221  1.42301740
   4.26905221  1.42301740  4.26905221
   0.00000000  0.00000000  0.00000000
   0.00000000  2.84603480  2.84603480
   2.84603480  0.00000000  2.84603480
   2.84603480  2.84603480  0.00000000
 


--------------------------------------------------------------------------------------------------------


 k-point   1 :   0.0000 0.0000 0.0000  plane waves:    4945
 k-point   2 :   0.2500-0.0000 0.0000  plane waves:    4957
 k-point   3 :   0.0000 0.2500 0.0000  plane waves:    4957
 k-point   4 :  -0.0000-0.0000 0.2500  plane waves:    4957
 k-point   5 :   0.5000-0.0000 0.0000  plane waves:    4950
 k-point   6 :   0.0000 0.5000 0.0000  plane waves:    4950
 k-point   7 :  -0.0000-0.0000 0.5000  plane waves:    4950
 k-point   8 :   0.2500 0.2500 0.0000  plane waves:    4963
 k-point   9 :  -0.0000 0.2500 0.2500  plane waves:    4963
 k-point  10 :   0.2500-0.0000 0.2500  plane waves:    4963
 k-point  11 :  -0.2500 0.2500 0.0000  plane waves:    4963
 k-point  12 :  -0.2500 0.0000 0.2500  plane waves:    4963
 k-point  13 :  -0.0000-0.2500 0.2500  plane waves:    4963
 k-point  14 :   0.5000 0.2500 0.0000  plane waves:    4982
 k-point  15 :  -0.0000 0.5000 0.2500  plane waves:    4982
 k-point  16 :   0.2500-0.0000 0.5000  plane waves:    4982
 k-point  17 :  -0.2500 0.5000 0.0000  plane waves:    4982
 k-point  18 :   0.5000-0.0000 0.2500  plane waves:    4982
 k-point  19 :  -0.0000 0.2500 0.5000  plane waves:    4982
 k-point  20 :   0.5000 0.5000 0.0000  plane waves:    4972
 k-point  21 :  -0.0000 0.5000 0.5000  plane waves:    4972
 k-point  22 :   0.5000-0.0000 0.5000  plane waves:    4972
 k-point  23 :   0.2500 0.2500 0.2500  plane waves:    4953
 k-point  24 :  -0.2500 0.2500 0.2500  plane waves:    4953
 k-point  25 :  -0.2500-0.2500 0.2500  plane waves:    4953
 k-point  26 :   0.2500-0.2500 0.2500  plane waves:    4953
 k-point  27 :   0.5000 0.2500 0.2500  plane waves:    4982
 k-point  28 :   0.2500 0.5000 0.2500  plane waves:    4982
 k-point  29 :   0.2500 0.2500 0.5000  plane waves:    4982
 k-point  30 :  -0.2500 0.5000 0.2500  plane waves:    4982
 k-point  31 :  -0.2500 0.2500 0.5000  plane waves:    4982
 k-point  32 :   0.5000-0.2500 0.2500  plane waves:    4982
 k-point  33 :   0.5000 0.5000 0.2500  plane waves:    4936
 k-point  34 :   0.2500 0.5000 0.5000  plane waves:    4936
 k-point  35 :   0.5000 0.2500 0.5000  plane waves:    4936
 k-point  36 :   0.5000 0.5000 0.5000  plane waves:    4896

 maximum and minimum number of plane-waves per node :      4982     4896

 maximum number of plane-waves:      4982
 maximum index in each direction: 
   IXMAX=   10   IYMAX=   10   IZMAX=   10
   IXMIN=  -11   IYMIN=  -11   IZMIN=  -11


 serial   3D FFT for wavefunctions
 parallel 3D FFT for charge:
    minimum data exchange during FFTs selected (reduces bandwidth)


 total amount of memory used by VASP MPI-rank0    63685. kBytes
=======================================================================

   base      :      30000. kBytes
   nonl-proj :      23961. kBytes
   fftplans  :        763. kBytes
   grid      :       2990. kBytes
   one-center:         73. kBytes
   wavefun   :       5898. kBytes
 
     INWAV:  cpu time      0.5236: real time      0.6329
 Broyden mixing: mesh for mixing (old mesh)
   NGX = 21   NGY = 21   NGZ = 21
  (NGX  = 64   NGY  = 64   NGZ  = 64)
  gives a total of   9261 points

 charge density for first step will be calculated from the start-wavefunctions


--------------------------------------------------------------------------------------------------------


 Maximum index for augmentation-charges         1481 (set IRDMAX)


--------------------------------------------------------------------------------------------------------


 initial charge from wavefunction
 First call to EWALD:  gamma=   0.311
 Maximum number of real-space cells 3x 3x 3
 Maximum number of reciprocal cells 3x 3x 3

    FEWALD:  cpu time      0.0010: real time      0.0010


--------------------------------------- Ionic step        1  -------------------------------------------




--------------------------------------- Iteration      1(   1)  ---------------------------------------


    POTLOK:  cpu time      0.0097: real time      0.0190
    SETDIJ:  cpu time      0.1390: real time      0.1403
     EDDAV:  cpu time      2.5212: real time      2.5559
       DOS:  cpu time      0.0036: real time      0.0039
    CHARGE:  cpu time      0.0223: real time      0.0225
    MIXING:  cpu time      0.0014: real time      0.0024
    --------------------------------------------
      LOOP:  cpu time      2.6973: real time      2.7439

 eigenvalue-minimisations  :  9856
 total energy-change (2. order) :-0.4798277E+02  (-0.2263692E-02)
 number of electron      47.9999991 magnetization       0.0000000
 augmentation part        4.4047128 magnetization      -0.0000438

 Broyden mixing:
  rms(total) = 0.51342E-01    rms(broyden)= 0.51341E-01
  rms(prec ) = 0.57487E-01
  weight for this iteration     100.00

 Free energy of the ion-electron system (eV)
  ---------------------------------------------------
  alpha Z        PSCENC =        42.16876872
  Ewald energy   TEWEN  =     -1644.05082740
  -Hartree energ DENC   =      -460.20146158
  -exchange      EXHF   =         0.00000000
  -V(xc)+E(xc)   XCENC  =       150.34292572
  PAW double counting   =      2863.51604469    -2977.05995402
  entropy T*S    EENTRO =        -0.00000000
  eigenvalues    EBANDS =      -752.16670341
  atomic energy  EATOM  =      2729.46843965
  Solvation  Ediel_sol  =         0.00000000
  ---------------------------------------------------
  free energy    TOTEN  =       -47.98276764 eV

  energy without entropy =      -47.98276764  energy(sigma->0) =      -47.98276764


--------------------------------------------------------------------------------------------------------




--------------------------------------- Iteration      1(   2)  ---------------------------------------


    POTLOK:  cpu time      0.0077: real time      0.0081
    SETDIJ:  cpu time      0.1393: real time      0.1398
     EDDAV:  cpu time      3.5860: real time      3.6011
       DOS:  cpu time      0.0005: real time      0.0005
    CHARGE:  cpu time      0.0198: real time      0.0199
    MIXING:  cpu time      0.0004: real time      0.0004
    --------------------------------------------
      LOOP:  cpu time      3.7536: real time      3.7697

 eigenvalue-minimisations  : 12928
 total energy-change (2. order) : 0.8460893E-03  (-0.3380220E-03)
 number of electron      47.9999991 magnetization      -0.0000000
 augmentation part        4.4069738 magnetization      -0.0000095

 Broyden mixing:
  rms(total) = 0.23746E-01    rms(broyden)= 0.23744E-01
  rms(prec ) = 0.24870E-01
  weight for this iteration     100.00

 eigenvalues of (default mixing * dielectric matrix)
  average eigenvalue GAMMA=   1.8012
  1.8012

 Free energy of the ion-electron system (eV)
  ---------------------------------------------------
  alpha Z        PSCENC =        42.16876872
  Ewald energy   TEWEN  =     -1644.05082740
  -Hartree energ DENC   =      -459.77907313
  -exchange      EXHF   =         0.00000000
  -V(xc)+E(xc)   XCENC  =       150.31003045
  PAW double counting   =      2892.66003478    -3006.15125113
  entropy T*S    EENTRO =        -0.00000000
  eigenvalues    EBANDS =      -752.60804349
  atomic energy  EATOM  =      2729.46843965
  Solvation  Ediel_sol  =         0.00000000
  ---------------------------------------------------
  free energy    TOTEN  =       -47.98192155 eV

  energy without entropy =      -47.98192155  energy(sigma->0) =      -47.98192155


--------------------------------------------------------------------------------------------------------




--------------------------------------- Iteration      1(   3)  ---------------------------------------


    POTLOK:  cpu time      0.0079: real time      0.0081
    SETDIJ:  cpu time      0.1389: real time      0.1392
     EDDAV:  cpu time      5.1270: real time      5.1477
       DOS:  cpu time      0.0006: real time      0.0006
    CHARGE:  cpu time      0.0203: real time      0.0204
    MIXING:  cpu time      0.0004: real time      0.0004
    --------------------------------------------
      LOOP:  cpu time      5.2950: real time      5.3164

 eigenvalue-minimisations  : 15616
 total energy-change (2. order) : 0.8500543E-04  (-0.5798597E-04)
 number of electron      47.9999991 magnetization      -0.0000000
 augmentation part        4.4052266 magnetization       0.0000042

 Broyden mixing:
  rms(total) = 0.21302E-02    rms(broyden)= 0.21286E-02
  rms(prec ) = 0.28720E-02
  weight for this iteration     100.00

 eigenvalues of (default mixing * dielectric matrix)
  average eigenvalue GAMMA=   1.4487
  1.1861  1.7113

 Free energy of the ion-electron system (eV)
  ---------------------------------------------------
  alpha Z        PSCENC =        42.16876872
  Ewald energy   TEWEN  =     -1644.05082740
  -Hartree energ DENC   =      -459.53460887
  -exchange      EXHF   =         0.00000000
  -V(xc)+E(xc)   XCENC  =       150.29024095
  PAW double counting   =      2915.09717234    -3028.54022112
  entropy T*S    EENTRO =        -0.00000000
  eigenvalues    EBANDS =      -752.88080082
  atomic energy  EATOM  =      2729.46843965
  Solvation  Ediel_sol  =         0.00000000
  ---------------------------------------------------
  free energy    TOTEN  =       -47.98183655 eV

  energy without entropy =      -47.98183655  energy(sigma->0) =      -47.98183655


--------------------------------------------------------------------------------------------------------




--------------------------------------- Iteration      1(   4)  ---------------------------------------


    POTLOK:  cpu time      0.0079: real time      0.0081
    SETDIJ:  cpu time      0.1399: real time      0.1403
     EDDAV:  cpu time      3.5090: real time      3.5234
       DOS:  cpu time      0.0005: real time      0.0005
    CHARGE:  cpu time      0.0198: real time      0.0199
    MIXING:  cpu time      0.0003: real time      0.0003
    --------------------------------------------
      LOOP:  cpu time      3.6774: real time      3.6925

 eigenvalue-minimisations  : 12288
 total energy-change (2. order) : 0.1149008E-05  (-0.2354515E-05)
 number of electron      47.9999991 magnetization       0.0000000
 augmentation part        4.4050014 magnetization      -0.0000049

 Broyden mixing:
  rms(total) = 0.11231E-02    rms(broyden)= 0.11231E-02
  rms(prec ) = 0.11972E-02
  weight for this iteration     100.00

 eigenvalues of (default mixing * dielectric matrix)
  average eigenvalue GAMMA=   1.5231
  1.0484  1.3873  2.1335

 Free energy of the ion-electron system (eV)
  ---------------------------------------------------
  alpha Z        PSCENC =        42.16876872
  Ewald energy   TEWEN  =     -1644.05082740
  -Hartree energ DENC   =      -459.54243115
  -exchange      EXHF   =         0.00000000
  -V(xc)+E(xc)   XCENC  =       150.29075037
  PAW double counting   =      2916.74531471    -3030.18523129
  entropy T*S    EENTRO =        -0.00000000
  eigenvalues    EBANDS =      -752.87661900
  atomic energy  EATOM  =      2729.46843965
  Solvation  Ediel_sol  =         0.00000000
  ---------------------------------------------------
  free energy    TOTEN  =       -47.98183540 eV

  energy without entropy =      -47.98183540  energy(sigma->0) =      -47.98183540


--------------------------------------------------------------------------------------------------------




--------------------------------------- Iteration      1(   5)  ---------------------------------------


    POTLOK:  cpu time      0.0078: real time      0.0080
    SETDIJ:  cpu time      0.1391: real time      0.1395
     EDDAV:  cpu time      4.0251: real time      4.0413
       DOS:  cpu time      0.0006: real time      0.0006
    CHARGE:  cpu time      0.0201: real time      0.0201
    MIXING:  cpu time      0.0003: real time      0.0003
    --------------------------------------------
      LOOP:  cpu time      4.1929: real time      4.2098

 eigenvalue-minimisations  : 12544
 total energy-change (2. order) :-0.9575556E-06  (-0.9878389E-07)
 number of electron      47.9999991 magnetization      -0.0000000
 augmentation part        4.4048376 magnetization       0.0000047

 Broyden mixing:
  rms(total) = 0.13680E-03    rms(broyden)= 0.13666E-03
  rms(prec ) = 0.15667E-03
  weight for this iteration     100.00

 eigenvalues of (default mixing * dielectric matrix)
  average eigenvalue GAMMA=   1.3650
  2.2762  1.3709  1.1250  0.6878

 Free energy of the ion-electron system (eV)
  ---------------------------------------------------
  alpha Z        PSCENC =        42.16876872
  Ewald energy   TEWEN  =     -1644.05082740
  -Hartree energ DENC   =      -459.52867475
  -exchange      EXHF   =         0.00000000
  -V(xc)+E(xc)   XCENC  =       150.28970223
  PAW double counting   =      2918.44517056    -3031.88216726
  entropy T*S    EENTRO =        -0.00000000
  eigenvalues    EBANDS =      -752.89224811
  atomic energy  EATOM  =      2729.46843965
  Solvation  Ediel_sol  =         0.00000000
  ---------------------------------------------------
  free energy    TOTEN  =       -47.98183636 eV

  energy without entropy =      -47.98183636  energy(sigma->0) =      -47.98183636


--------------------------------------------------------------------------------------------------------




--------------------------------------- Iteration      1(   6)  ---------------------------------------


    POTLOK:  cpu time      0.0077: real time      0.0079
    SETDIJ:  cpu time      0.1386: real time      0.1389
     EDDAV:  cpu time      1.6657: real time      1.6730
       DOS:  cpu time      0.0005: real time      0.0004
    --------------------------------------------
      LOOP:  cpu time      1.8124: real time      1.8203

 eigenvalue-minimisations  :  6400
 total energy-change (2. order) :-0.1195162E-06  (-0.1220063E-07)
 number of electron      47.9999991 magnetization      -0.0000000
 augmentation part        4.4048376 magnetization       0.0000047

 Free energy of the ion-electron system (eV)
  ---------------------------------------------------
  alpha Z        PSCENC =        42.16876872
  Ewald energy   TEWEN  =     -1644.05082740
  -Hartree energ DENC   =      -459.52599364
  -exchange      EXHF   =         0.00000000
  -V(xc)+E(xc)   XCENC  =       150.28956227
  PAW double counting   =      2918.67737032    -3032.11451772
  entropy T*S    EENTRO =        -0.00000000
  eigenvalues    EBANDS =      -752.89463867
  atomic energy  EATOM  =      2729.46843965
  Solvation  Ediel_sol  =         0.00000000
  ---------------------------------------------------
  free energy    TOTEN  =       -47.98183648 eV

  energy without entropy =      -47.98183648  energy(sigma->0) =      -47.98183648


--------------------------------------------------------------------------------------------------------




 average (electrostatic) potential at core
  the test charge radii are     0.7079  0.9698
  (the norm of the test charge is              1.0000)
       1 -61.7531       2 -61.7531       3 -61.7531       4 -61.7531       5 -61.7531
       6 -61.7531       7 -61.7531       8 -61.7531       9 -87.8019      10 -87.8019
      11 -87.8019      12 -87.8019
 
 
 
 E-fermi :   1.7766     XC(G=0):  -8.5194     alpha+bet :-10.9278

 Fermi energy:         1.7766431483

 spin component 1

 k-point     1 :       0.0000    0.0000    0.0000
  band No.  band energies     occupation 
      1     -42.6902      1.00000
      2     -42.6745      1.00000
      3     -42.6745      1.00000
      4     -42.6745      1.00000
      5     -42.6603      1.00000
      6     -42.6603      1.00000
      7     -42.6603      1.00000
      8     -42.6470      1.00000
      9      -9.5474      1.00000
     10      -8.9868      1.00000
     11      -8.9868      1.00000
     12      -8.9868      1.00000
     13      -0.6837      1.00000
     14      -0.6837      1.00000
     15      -0.6837      1.00000
     16       0.0586      1.00000
     17       0.0586      1.00000
     18       0.0586      1.00000
     19       0.0586      1.00000
     20       0.0586      1.00000
     21       0.0586      1.00000
     22       1.4837      1.00000
     23       1.4837      1.00000
     24       1.4837      1.00000
     25       4.8700      0.00000
     26       4.8700      0.00000
     27       4.8700      0.00000
     28       5.7754      0.00000
     29       7.7141      0.00000
     30       7.7141      0.00000
     31       7.7141      0.00000
     32       8.5881      0.00000
     33       8.5881      0.00000
     34       8.5881      0.00000
     35      12.5968      0.00000
     36      12.5968      0.00000
     37      12.5968      0.00000
     38      12.5968      0.00000
     39      12.5968      0.00000
     40      12.5968      0.00000
     41      12.6708      0.00000
     42      12.6708      0.00000
     43      13.6250      0.00000
     44      13.6250      0.00000
     45      13.6250      0.00000
     46      13.9257      0.00000
     47      13.9257      0.00000
     48      13.9257      0.00000
     49      13.9854      0.00000
     50      13.9854      0.00000
     51      13.9854      0.00000
     52      13.9854      0.00000
     53      13.9854      0.00000
     54      13.9854      0.00000
     55      15.4550      0.00000
     56      15.4550      0.00000
     57      15.4550      0.00000
     58      16.0953      0.00000
     59      16.0953      0.00000
     60      16.0953      0.00000
     61      18.6339      0.00000
     62      18.9908      0.00000
     63      18.9908      0.00000
     64      18.9908      0.00000

 k-point     2 :       0.2500   -0.0000    0.0000
  band No.  band energies     occupation 
      1     -42.6879      1.00000
      2     -42.6769      1.00000
      3     -42.6724      1.00000
      4     -42.6724      1.00000
      5     -42.6624      1.00000
      6     -42.6624      1.00000
      7     -42.6584      1.00000
      8     -42.6490      1.00000
      9      -9.4719      1.00000
     10      -9.0763      1.00000
     11      -8.9810      1.00000
     12      -8.9810      1.00000
     13      -0.5896      1.00000
     14      -0.5896      1.00000
     15      -0.4635      1.00000
     16      -0.1221      1.00000
     17      -0.1221      1.00000
     18      -0.0680      1.00000
     19      -0.0680      1.00000
     20       0.2235      1.00000
     21       0.2235      1.00000
     22       0.9942      1.00000
     23       1.2135      1.00000
     24       1.2135      1.00000
     25       5.3092      0.00000
     26       5.6490      0.00000
     27       5.6490      0.00000
     28       6.3184      0.00000
     29       7.8357      0.00000
     30       8.2152      0.00000
     31       8.2152      0.00000
     32       8.4537      0.00000
     33       9.0750      0.00000
     34       9.0750      0.00000
     35      10.6963      0.00000
     36      10.6963      0.00000
     37      10.7424      0.00000
     38      11.1171      0.00000
     39      11.1171      0.00000
     40      12.1921      0.00000
     41      12.1921      0.00000
     42      12.2568      0.00000
     43      12.8191      0.00000
     44      12.8191      0.00000
     45      12.9227      0.00000
     46      14.0602      0.00000
     47      14.0602      0.00000
     48      14.0991      0.00000
     49      14.0991      0.00000
     50      14.4671      0.00000
     51      14.4671      0.00000
     52      14.7303      0.00000
     53      15.7890      0.00000
     54      15.7890      0.00000
     55      15.8246      0.00000
     56      15.8246      0.00000
     57      16.2710      0.00000
     58      17.0285      0.00000
     59      17.6392      0.00000
     60      17.6392      0.00000
     61      18.3142      0.00000
     62      18.3142      0.00000
     63      18.6534      0.00000
     64      18.7614      0.00000

 k-point     3 :       0.0000    0.2500    0.0000
  band No.  band energies     occupation 
      1     -42.6879      1.00000
      2     -42.6769      1.00000
      3     -42.6724      1.00000
      4     -42.6724      1.00000
      5     -42.6624      1.00000
      6     -42.6624      1.00000
      7     -42.6584      1.00000
      8     -42.6490      1.00000
      9      -9.4719      1.00000
     10      -9.0763      1.00000
     11      -8.9810      1.00000
     12      -8.9810      1.00000
     13      -0.5896      1.00000
     14      -0.5896      1.00000
     15      -0.4635      1.00000
     16      -0.1221      1.00000
     17      -0.1221      1.00000
     18      -0.0680      1.00000
     19      -0.0680      1.00000
     20       0.2235      1.00000
     21       0.2235      1.00000
     22       0.9942      1.00000
     23       1.2135      1.00000
     24       1.2135      1.00000
     25       5.3092      0.00000
     26       5.6490      0.00000
     27       5.6490      0.00000
     28       6.3184      0.00000
     29       7.8357      0.00000
     30       8.2152      0.00000
     31       8.2152      0.00000
     32       8.4537      0.00000
     33       9.0750      0.00000
     34       9.0750      0.00000
     35      10.6963      0.00000
     36      10.6963      0.00000
     37      10.7424      0.00000
     38      11.1171      0.00000
     39      11.1171      0.00000
     40      12.1921      0.00000
     41      12.1921      0.00000
     42      12.2568      0.00000
     43      12.8191      0.00000
     44      12.8191      0.00000
     45      12.9227      0.00000
     46      14.0602      0.00000
     47      14.0602      0.00000
     48      14.0991      0.00000
     49      14.0991      0.00000
     50      14.4671      0.00000
     51      14.4671      0.00000
     52      14.7303      0.00000
     53      15.7890      0.00000
     54      15.7890      0.00000
     55      15.8246      0.00000
     56      15.8246      0.00000
     57      16.2710      0.00000
     58      17.0285      0.00000
     59      17.6392      0.00000
     60      17.6392      0.00000
     61      18.3142      0.00000
     62      18.3142      0.00000
     63      18.6534      0.00000
     64      18.7614      0.00000

 k-point     4 :      -0.0000   -0.0000    0.2500
  band No.  band energies     occupation 
      1     -42.6879      1.00000
      2     -42.6769      1.00000
      3     -42.6724      1.00000
      4     -42.6724      1.00000
      5     -42.6624      1.00000
      6     -42.6624      1.00000
      7     -42.6584      1.00000
      8     -42.6490      1.00000
      9      -9.4719      1.00000
     10      -9.0763      1.00000
     11      -8.9810      1.00000
     12      -8.9810      1.00000
     13      -0.5896      1.00000
     14      -0.5896      1.00000
     15      -0.4635      1.00000
     16      -0.1221      1.00000
     17      -0.1221      1.00000
     18      -0.0680      1.00000
     19      -0.0680      1.00000
     20       0.2235      1.00000
     21       0.2235      1.00000
     22       0.9942      1.00000
     23       1.2135      1.00000
     24       1.2135      1.00000
     25       5.3092      0.00000
     26       5.6490      0.00000
     27       5.6490      0.00000
     28       6.3184      0.00000
     29       7.8357      0.00000
     30       8.2152      0.00000
     31       8.2152      0.00000
     32       8.4537      0.00000
     33       9.0750      0.00000
     34       9.0750      0.00000
     35      10.6963      0.00000
     36      10.6963      0.00000
     37      10.7424      0.00000
     38      11.1171      0.00000
     39      11.1171      0.00000
     40      12.1921      0.00000
     41      12.1921      0.00000
     42      12.2568      0.00000
     43      12.8191      0.00000
     44      12.8191      0.00000
     45      12.9227      0.00000
     46      14.0602      0.00000
     47      14.0602      0.00000
     48      14.0991      0.00000
     49      14.0991      0.00000
     50      14.4671      0.00000
     51      14.4671      0.00000
     52      14.7303      0.00000
     53      15.7890      0.00000
     54      15.7890      0.00000
     55      15.8246      0.00000
     56      15.8246      0.00000
     57      16.2710      0.00000
     58      17.0285      0.00000
     59      17.6392      0.00000
     60      17.6392      0.00000
     61      18.3142      0.00000
     62      18.3142      0.00000
     63      18.6534      0.00000
     64      18.7614      0.00000

 k-point     5 :       0.5000   -0.0000    0.0000
  band No.  band energies     occupation 
      1     -42.6824      1.00000
      2     -42.6824      1.00000
      3     -42.6674      1.00000
      4     -42.6674      1.00000
      5     -42.6674      1.00000
      6     -42.6674      1.00000
      7     -42.6536      1.00000
      8     -42.6536      1.00000
      9      -9.2811      1.00000
     10      -9.2811      1.00000
     11      -8.9753      1.00000
     12      -8.9753      1.00000
     13      -0.3448      1.00000
     14      -0.3448      1.00000
     15      -0.3448      1.00000
     16      -0.3448      1.00000
     17      -0.2809      1.00000
     18      -0.2809      1.00000
     19       0.1552      1.00000
     20       0.1552      1.00000
     21       0.6695      1.00000
     22       0.6695      1.00000
     23       0.6695      1.00000
     24       0.6695      1.00000
     25       6.2982      0.00000
     26       6.2982      0.00000
     27       6.9637      0.00000
     28       6.9637      0.00000
     29       8.1384      0.00000
     30       8.1384      0.00000
     31       8.7836      0.00000
     32       8.7836      0.00000
     33       9.4601      0.00000
     34       9.4601      0.00000
     35       9.4601      0.00000
     36       9.4601      0.00000
     37      10.3948      0.00000
     38      10.3948      0.00000
     39      10.3948      0.00000
     40      10.3948      0.00000
     41      10.4685      0.00000
     42      10.4685      0.00000
     43      13.4255      0.00000
     44      13.4255      0.00000
     45      13.4255      0.00000
     46      13.4255      0.00000
     47      13.6542      0.00000
     48      13.6542      0.00000
     49      14.1427      0.00000
     50      14.1427      0.00000
     51      16.0073      0.00000
     52      16.0073      0.00000
     53      16.0283      0.00000
     54      16.0283      0.00000
     55      16.0283      0.00000
     56      16.0283      0.00000
     57      17.7410      0.00000
     58      17.7410      0.00000
     59      17.8464      0.00000
     60      17.8464      0.00000
     61      18.5459      0.00000
     62      18.5459      0.00000
     63      18.6869      0.00000
     64      18.6870      0.00000

 k-point     6 :       0.0000    0.5000    0.0000
  band No.  band energies     occupation 
      1     -42.6824      1.00000
      2     -42.6824      1.00000
      3     -42.6674      1.00000
      4     -42.6674      1.00000
      5     -42.6674      1.00000
      6     -42.6674      1.00000
      7     -42.6536      1.00000
      8     -42.6536      1.00000
      9      -9.2811      1.00000
     10      -9.2811      1.00000
     11      -8.9753      1.00000
     12      -8.9753      1.00000
     13      -0.3448      1.00000
     14      -0.3448      1.00000
     15      -0.3448      1.00000
     16      -0.3448      1.00000
     17      -0.2809      1.00000
     18      -0.2809      1.00000
     19       0.1552      1.00000
     20       0.1552      1.00000
     21       0.6695      1.00000
     22       0.6695      1.00000
     23       0.6695      1.00000
     24       0.6695      1.00000
     25       6.2982      0.00000
     26       6.2982      0.00000
     27       6.9637      0.00000
     28       6.9637      0.00000
     29       8.1384      0.00000
     30       8.1384      0.00000
     31       8.7836      0.00000
     32       8.7836      0.00000
     33       9.4601      0.00000
     34       9.4601      0.00000
     35       9.4601      0.00000
     36       9.4601      0.00000
     37      10.3948      0.00000
     38      10.3948      0.00000
     39      10.3948      0.00000
     40      10.3948      0.00000
     41      10.4685      0.00000
     42      10.4685      0.00000
     43      13.4255      0.00000
     44      13.4255      0.00000
     45      13.4255      0.00000
     46      13.4255      0.00000
     47      13.6542      0.00000
     48      13.6542      0.00000
     49      14.1427      0.00000
     50      14.1427      0.00000
     51      16.0073      0.00000
     52      16.0073      0.00000
     53      16.0283      0.00000
     54      16.0283      0.00000
     55      16.0283      0.00000
     56      16.0283      0.00000
     57      17.7410      0.00000
     58      17.7410      0.00000
     59      17.8464      0.00000
     60      17.8464      0.00000
     61      18.5459      0.00000
     62      18.5459      0.00000
     63      18.6869      0.00000
     64      18.6869      0.00000

 k-point     7 :      -0.0000   -0.0000    0.5000
  band No.  band energies     occupation 
      1     -42.6824      1.00000
      2     -42.6824      1.00000
      3     -42.6674      1.00000
      4     -42.6674      1.00000
      5     -42.6674      1.00000
      6     -42.6674      1.00000
      7     -42.6536      1.00000
      8     -42.6536      1.00000
      9      -9.2811      1.00000
     10      -9.2811      1.00000
     11      -8.9753      1.00000
     12      -8.9753      1.00000
     13      -0.3448      1.00000
     14      -0.3448      1.00000
     15      -0.3448      1.00000
     16      -0.3448      1.00000
     17      -0.2809      1.00000
     18      -0.2809      1.00000
     19       0.1552      1.00000
     20       0.1552      1.00000
     21       0.6695      1.00000
     22       0.6695      1.00000
     23       0.6695      1.00000
     24       0.6695      1.00000
     25       6.2982      0.00000
     26       6.2982      0.00000
     27       6.9637      0.00000
     28       6.9637      0.00000
     29       8.1384      0.00000
     30       8.1384      0.00000
     31       8.7836      0.00000
     32       8.7836      0.00000
     33       9.4601      0.00000
     34       9.4601      0.00000
     35       9.4601      0.00000
     36       9.4601      0.00000
     37      10.3948      0.00000
     38      10.3948      0.00000
     39      10.3948      0.00000
     40      10.3948      0.00000
     41      10.4685      0.00000
     42      10.4685      0.00000
     43      13.4255      0.00000
     44      13.4255      0.00000
     45      13.4255      0.00000
     46      13.4255      0.00000
     47      13.6542      0.00000
     48      13.6542      0.00000
     49      14.1427      0.00000
     50      14.1427      0.00000
     51      16.0073      0.00000
     52      16.0073      0.00000
     53      16.0283      0.00000
     54      16.0283      0.00000
     55      16.0283      0.00000
     56      16.0283      0.00000
     57      17.7410      0.00000
     58      17.7410      0.00000
     59      17.8464      0.00000
     60      17.8464      0.00000
     61      18.5459      0.00000
     62      18.5459      0.00000
     63      18.6869      0.00000
     64      18.6869      0.00000

 k-point     8 :       0.2500    0.2500    0.0000
  band No.  band energies     occupation 
      1     -42.6857      1.00000
      2     -42.6748      1.00000
      3     -42.6748      1.00000
      4     -42.6704      1.00000
      5     -42.6645      1.00000
      6     -42.6604      1.00000
      7     -42.6604      1.00000
      8     -42.6509      1.00000
      9      -9.4040      1.00000
     10      -9.0571      1.00000
     11      -9.0571      1.00000
     12      -8.9895      1.00000
     13      -0.6258      1.00000
     14      -0.6258      1.00000
     15      -0.5905      1.00000
     16      -0.4874      1.00000
     17       0.0837      1.00000
     18       0.0837      1.00000
     19       0.2889      1.00000
     20       0.2889      1.00000
     21       0.3303      1.00000
     22       0.3424      1.00000
     23       0.9768      1.00000
     24       1.3799      1.00000
     25       6.0489      0.00000
     26       6.0489      0.00000
     27       6.0757      0.00000
     28       6.7088      0.00000
     29       8.2488      0.00000
     30       8.3383      0.00000
     31       8.4152      0.00000
     32       8.9398      0.00000
     33       8.9398      0.00000
     34       9.5452      0.00000
     35       9.6255      0.00000
     36       9.6255      0.00000
     37      10.4919      0.00000
     38      10.9708      0.00000
     39      11.0693      0.00000
     40      11.2793      0.00000
     41      11.2793      0.00000
     42      11.9547      0.00000
     43      12.2088      0.00000
     44      12.2434      0.00000
     45      12.2434      0.00000
     46      12.2629      0.00000
     47      14.0510      0.00000
     48      14.0510      0.00000
     49      14.9205      0.00000
     50      15.4667      0.00000
     51      15.5163      0.00000
     52      15.5163      0.00000
     53      15.5322      0.00000
     54      15.8934      0.00000
     55      15.8934      0.00000
     56      17.2495      0.00000
     57      17.2495      0.00000
     58      17.2953      0.00000
     59      17.6391      0.00000
     60      17.6991      0.00000
     61      17.6991      0.00000
     62      17.8110      0.00000
     63      17.9675      0.00000
     64      18.6617      0.00000

 k-point     9 :      -0.0000    0.2500    0.2500
  band No.  band energies     occupation 
      1     -42.6857      1.00000
      2     -42.6748      1.00000
      3     -42.6748      1.00000
      4     -42.6704      1.00000
      5     -42.6645      1.00000
      6     -42.6604      1.00000
      7     -42.6604      1.00000
      8     -42.6509      1.00000
      9      -9.4040      1.00000
     10      -9.0571      1.00000
     11      -9.0571      1.00000
     12      -8.9895      1.00000
     13      -0.6258      1.00000
     14      -0.6258      1.00000
     15      -0.5905      1.00000
     16      -0.4874      1.00000
     17       0.0837      1.00000
     18       0.0837      1.00000
     19       0.2889      1.00000
     20       0.2889      1.00000
     21       0.3303      1.00000
     22       0.3424      1.00000
     23       0.9768      1.00000
     24       1.3799      1.00000
     25       6.0489      0.00000
     26       6.0489      0.00000
     27       6.0757      0.00000
     28       6.7088      0.00000
     29       8.2488      0.00000
     30       8.3383      0.00000
     31       8.4152      0.00000
     32       8.9398      0.00000
     33       8.9398      0.00000
     34       9.5452      0.00000
     35       9.6255      0.00000
     36       9.6255      0.00000
     37      10.4919      0.00000
     38      10.9708      0.00000
     39      11.0693      0.00000
     40      11.2793      0.00000
     41      11.2793      0.00000
     42      11.9547      0.00000
     43      12.2088      0.00000
     44      12.2434      0.00000
     45      12.2434      0.00000
     46      12.2629      0.00000
     47      14.0510      0.00000
     48      14.0510      0.00000
     49      14.9205      0.00000
     50      15.4667      0.00000
     51      15.5163      0.00000
     52      15.5163      0.00000
     53      15.5322      0.00000
     54      15.8934      0.00000
     55      15.8934      0.00000
     56      17.2495      0.00000
     57      17.2495      0.00000
     58      17.2953      0.00000
     59      17.6391      0.00000
     60      17.6991      0.00000
     61      17.6991      0.00000
     62      17.8110      0.00000
     63      17.9675      0.00000
     64      18.6617      0.00000

 k-point    10 :       0.2500   -0.0000    0.2500
  band No.  band energies     occupation 
      1     -42.6857      1.00000
      2     -42.6748      1.00000
      3     -42.6748      1.00000
      4     -42.6704      1.00000
      5     -42.6645      1.00000
      6     -42.6604      1.00000
      7     -42.6604      1.00000
      8     -42.6509      1.00000
      9      -9.4040      1.00000
     10      -9.0571      1.00000
     11      -9.0571      1.00000
     12      -8.9895      1.00000
     13      -0.6258      1.00000
     14      -0.6258      1.00000
     15      -0.5905      1.00000
     16      -0.4874      1.00000
     17       0.0837      1.00000
     18       0.0837      1.00000
     19       0.2889      1.00000
     20       0.2889      1.00000
     21       0.3303      1.00000
     22       0.3424      1.00000
     23       0.9768      1.00000
     24       1.3799      1.00000
     25       6.0489      0.00000
     26       6.0489      0.00000
     27       6.0757      0.00000
     28       6.7088      0.00000
     29       8.2488      0.00000
     30       8.3383      0.00000
     31       8.4152      0.00000
     32       8.9398      0.00000
     33       8.9398      0.00000
     34       9.5452      0.00000
     35       9.6255      0.00000
     36       9.6255      0.00000
     37      10.4919      0.00000
     38      10.9708      0.00000
     39      11.0693      0.00000
     40      11.2793      0.00000
     41      11.2793      0.00000
     42      11.9547      0.00000
     43      12.2088      0.00000
     44      12.2434      0.00000
     45      12.2434      0.00000
     46      12.2629      0.00000
     47      14.0510      0.00000
     48      14.0510      0.00000
     49      14.9205      0.00000
     50      15.4667      0.00000
     51      15.5163      0.00000
     52      15.5163      0.00000
     53      15.5322      0.00000
     54      15.8934      0.00000
     55      15.8934      0.00000
     56      17.2495      0.00000
     57      17.2495      0.00000
     58      17.2953      0.00000
     59      17.6391      0.00000
     60      17.6991      0.00000
     61      17.6991      0.00000
     62      17.8110      0.00000
     63      17.9675      0.00000
     64      18.6617      0.00000

 k-point    11 :      -0.2500    0.2500    0.0000
  band No.  band energies     occupation 
      1     -42.6857      1.00000
      2     -42.6748      1.00000
      3     -42.6748      1.00000
      4     -42.6704      1.00000
      5     -42.6645      1.00000
      6     -42.6604      1.00000
      7     -42.6604      1.00000
      8     -42.6509      1.00000
      9      -9.4040      1.00000
     10      -9.0571      1.00000
     11      -9.0571      1.00000
     12      -8.9895      1.00000
     13      -0.6258      1.00000
     14      -0.6258      1.00000
     15      -0.5905      1.00000
     16      -0.4874      1.00000
     17       0.0837      1.00000
     18       0.0837      1.00000
     19       0.2889      1.00000
     20       0.2889      1.00000
     21       0.3303      1.00000
     22       0.3424      1.00000
     23       0.9768      1.00000
     24       1.3799      1.00000
     25       6.0489      0.00000
     26       6.0489      0.00000
     27       6.0757      0.00000
     28       6.7088      0.00000
     29       8.2488      0.00000
     30       8.3383      0.00000
     31       8.4152      0.00000
     32       8.9398      0.00000
     33       8.9398      0.00000
     34       9.5452      0.00000
     35       9.6255      0.00000
     36       9.6255      0.00000
     37      10.4919      0.00000
     38      10.9708      0.00000
     39      11.0693      0.00000
     40      11.2793      0.00000
     41      11.2793      0.00000
     42      11.9547      0.00000
     43      12.2088      0.00000
     44      12.2434      0.00000
     45      12.2434      0.00000
     46      12.2629      0.00000
     47      14.0510      0.00000
     48      14.0510      0.00000
     49      14.9205      0.00000
     50      15.4667      0.00000
     51      15.5163      0.00000
     52      15.5163      0.00000
     53      15.5322      0.00000
     54      15.8934      0.00000
     55      15.8934      0.00000
     56      17.2495      0.00000
     57      17.2495      0.00000
     58      17.2953      0.00000
     59      17.6391      0.00000
     60      17.6991      0.00000
     61      17.6991      0.00000
     62      17.8110      0.00000
     63      17.9675      0.00000
     64      18.6617      0.00000

 k-point    12 :      -0.2500    0.0000    0.2500
  band No.  band energies     occupation 
      1     -42.6857      1.00000
      2     -42.6748      1.00000
      3     -42.6748      1.00000
      4     -42.6704      1.00000
      5     -42.6645      1.00000
      6     -42.6604      1.00000
      7     -42.6604      1.00000
      8     -42.6509      1.00000
      9      -9.4040      1.00000
     10      -9.0571      1.00000
     11      -9.0571      1.00000
     12      -8.9895      1.00000
     13      -0.6258      1.00000
     14      -0.6258      1.00000
     15      -0.5905      1.00000
     16      -0.4874      1.00000
     17       0.0837      1.00000
     18       0.0837      1.00000
     19       0.2889      1.00000
     20       0.2889      1.00000
     21       0.3303      1.00000
     22       0.3424      1.00000
     23       0.9768      1.00000
     24       1.3799      1.00000
     25       6.0489      0.00000
     26       6.0489      0.00000
     27       6.0757      0.00000
     28       6.7088      0.00000
     29       8.2488      0.00000
     30       8.3383      0.00000
     31       8.4152      0.00000
     32       8.9398      0.00000
     33       8.9398      0.00000
     34       9.5452      0.00000
     35       9.6255      0.00000
     36       9.6255      0.00000
     37      10.4919      0.00000
     38      10.9708      0.00000
     39      11.0693      0.00000
     40      11.2793      0.00000
     41      11.2793      0.00000
     42      11.9547      0.00000
     43      12.2088      0.00000
     44      12.2434      0.00000
     45      12.2434      0.00000
     46      12.2629      0.00000
     47      14.0510      0.00000
     48      14.0510      0.00000
     49      14.9205      0.00000
     50      15.4667      0.00000
     51      15.5163      0.00000
     52      15.5163      0.00000
     53      15.5322      0.00000
     54      15.8934      0.00000
     55      15.8934      0.00000
     56      17.2495      0.00000
     57      17.2495      0.00000
     58      17.2953      0.00000
     59      17.6391      0.00000
     60      17.6991      0.00000
     61      17.6991      0.00000
     62      17.8110      0.00000
     63      17.9675      0.00000
     64      18.6617      0.00000

 k-point    13 :      -0.0000   -0.2500    0.2500
  band No.  band energies     occupation 
      1     -42.6857      1.00000
      2     -42.6748      1.00000
      3     -42.6748      1.00000
      4     -42.6704      1.00000
      5     -42.6645      1.00000
      6     -42.6604      1.00000
      7     -42.6604      1.00000
      8     -42.6509      1.00000
      9      -9.4040      1.00000
     10      -9.0571      1.00000
     11      -9.0571      1.00000
     12      -8.9895      1.00000
     13      -0.6258      1.00000
     14      -0.6258      1.00000
     15      -0.5905      1.00000
     16      -0.4874      1.00000
     17       0.0837      1.00000
     18       0.0837      1.00000
     19       0.2889      1.00000
     20       0.2889      1.00000
     21       0.3303      1.00000
     22       0.3424      1.00000
     23       0.9768      1.00000
     24       1.3799      1.00000
     25       6.0489      0.00000
     26       6.0489      0.00000
     27       6.0757      0.00000
     28       6.7088      0.00000
     29       8.2488      0.00000
     30       8.3383      0.00000
     31       8.4152      0.00000
     32       8.9398      0.00000
     33       8.9398      0.00000
     34       9.5452      0.00000
     35       9.6255      0.00000
     36       9.6255      0.00000
     37      10.4919      0.00000
     38      10.9708      0.00000
     39      11.0693      0.00000
     40      11.2793      0.00000
     41      11.2793      0.00000
     42      11.9547      0.00000
     43      12.2088      0.00000
     44      12.2434      0.00000
     45      12.2434      0.00000
     46      12.2629      0.00000
     47      14.0510      0.00000
     48      14.0510      0.00000
     49      14.9205      0.00000
     50      15.4667      0.00000
     51      15.5163      0.00000
     52      15.5163      0.00000
     53      15.5322      0.00000
     54      15.8934      0.00000
     55      15.8934      0.00000
     56      17.2495      0.00000
     57      17.2495      0.00000
     58      17.2953      0.00000
     59      17.6391      0.00000
     60      17.6991      0.00000
     61      17.6991      0.00000
     62      17.8110      0.00000
     63      17.9675      0.00000
     64      18.6617      0.00000

 k-point    14 :       0.5000    0.2500    0.0000
  band No.  band energies     occupation 
      1     -42.6803      1.00000
      2     -42.6803      1.00000
      3     -42.6696      1.00000
      4     -42.6696      1.00000
      5     -42.6654      1.00000
      6     -42.6654      1.00000
      7     -42.6557      1.00000
      8     -42.6557      1.00000
      9      -9.2347      1.00000
     10      -9.2347      1.00000
     11      -9.0179      1.00000
     12      -9.0179      1.00000
     13      -0.7838      1.00000
     14      -0.7838      1.00000
     15      -0.3297      1.00000
     16      -0.3297      1.00000
     17      -0.2202      1.00000
     18      -0.2202      1.00000
     19       0.4033      1.00000
     20       0.4033      1.00000
     21       0.4901      1.00000
     22       0.4901      1.00000
     23       0.9632      1.00000
     24       0.9632      1.00000
     25       6.9380      0.00000
[...]
     45      13.1317      0.00000
     46      13.1317      0.00000
     47      13.2729      0.00000
     48      13.2729      0.00000
     49      14.8569      0.00000
     50      14.8569      0.00000
     51      15.1850      0.00000
     52      15.1850      0.00000
     53      16.5006      0.00000
     54      16.5006      0.00000
     55      16.5743      0.00000
     56      16.5743      0.00000
     57      16.6865      0.00000
     58      16.6865      0.00000
     59      17.3568      0.00000
     60      17.3568      0.00000
     61      17.3772      0.00000
     62      17.3772      0.00000
     63      18.8331      0.00000
     64      18.8331      0.00000

 k-point    33 :       0.5000    0.5000    0.2500
  band No.  band energies     occupation 
      1     -42.6951      1.00000
      2     -42.6951      1.00000
      3     -42.6951      1.00000
      4     -42.6951      1.00000
      5     -42.6850      1.00000
      6     -42.6850      1.00000
      7     -42.6850      1.00000
      8     -42.6850      1.00000
      9      -9.1305      1.00000
     10      -9.1305      1.00000
     11      -9.1305      1.00000
     12      -9.1305      1.00000
     13      -1.1712      1.00000
     14      -1.1712      1.00000
     15      -1.1712      1.00000
     16      -1.1712      1.00000
     17       0.5962      1.00000
     18       0.5962      1.00000
     19       0.5962      1.00000
     20       0.5962      1.00000
     21       0.9413      1.00000
     22       0.9413      1.00000
     23       0.9413      1.00000
     24       0.9413      1.00000
     25       7.7307      0.00000
     26       7.7307      0.00000
     27       7.7307      0.00000
     28       7.7307      0.00000
     29       7.9395      0.00000
     30       7.9395      0.00000
     31       7.9395      0.00000
     32       7.9395      0.00000
     33       8.5009      0.00000
     34       8.5009      0.00000
     35       8.5009      0.00000
     36       8.5009      0.00000
     37      10.0626      0.00000
     38      10.0626      0.00000
     39      10.0626      0.00000
     40      10.0626      0.00000
     41      11.8187      0.00000
     42      11.8187      0.00000
     43      11.8187      0.00000
     44      11.8187      0.00000
     45      13.7926      0.00000
     46      13.7926      0.00000
     47      13.7926      0.00000
     48      13.7926      0.00000
     49      14.8187      0.00000
     50      14.8187      0.00000
     51      14.8187      0.00000
     52      14.8187      0.00000
     53      15.7822      0.00000
     54      15.7822      0.00000
     55      15.7822      0.00000
     56      15.7822      0.00000
     57      16.8739      0.00000
     58      16.8739      0.00000
     59      16.8739      0.00000
     60      16.8739      0.00000
     61      17.3176      0.00000
     62      17.3176      0.00000
     63      17.3176      0.00000
     64      17.3176      0.00000

 k-point    34 :       0.2500    0.5000    0.5000
  band No.  band energies     occupation 
      1     -42.6951      1.00000
      2     -42.6951      1.00000
      3     -42.6951      1.00000
      4     -42.6951      1.00000
      5     -42.6850      1.00000
      6     -42.6850      1.00000
      7     -42.6850      1.00000
      8     -42.6850      1.00000
      9      -9.1305      1.00000
     10      -9.1305      1.00000
     11      -9.1305      1.00000
     12      -9.1305      1.00000
     13      -1.1712      1.00000
     14      -1.1712      1.00000
     15      -1.1712      1.00000
     16      -1.1712      1.00000
     17       0.5962      1.00000
     18       0.5962      1.00000
     19       0.5962      1.00000
     20       0.5962      1.00000
     21       0.9413      1.00000
     22       0.9413      1.00000
     23       0.9413      1.00000
     24       0.9413      1.00000
     25       7.7307      0.00000
     26       7.7307      0.00000
     27       7.7307      0.00000
     28       7.7307      0.00000
     29       7.9395      0.00000
     30       7.9395      0.00000
     31       7.9395      0.00000
     32       7.9395      0.00000
     33       8.5009      0.00000
     34       8.5009      0.00000
     35       8.5009      0.00000
     36       8.5009      0.00000
     37      10.0626      0.00000
     38      10.0626      0.00000
     39      10.0626      0.00000
     40      10.0626      0.00000
     41      11.8187      0.00000
     42      11.8187      0.00000
     43      11.8187      0.00000
     44      11.8187      0.00000
     45      13.7926      0.00000
     46      13.7926      0.00000
     47      13.7926      0.00000
     48      13.7926      0.00000
     49      14.8187      0.00000
     50      14.8187      0.00000
     51      14.8187      0.00000
     52      14.8187      0.00000
     53      15.7822      0.00000
     54      15.7822      0.00000
     55      15.7822      0.00000
     56      15.7822      0.00000
     57      16.8739      0.00000
     58      16.8739      0.00000
     59      16.8739      0.00000
     60      16.8739      0.00000
     61      17.3176      0.00000
     62      17.3176      0.00000
     63      17.3176      0.00000
     64      17.3176      0.00000

 k-point    35 :       0.5000    0.2500    0.5000
  band No.  band energies     occupation 
      1     -42.6951      1.00000
      2     -42.6951      1.00000
      3     -42.6951      1.00000
      4     -42.6951      1.00000
      5     -42.6850      1.00000
      6     -42.6850      1.00000
      7     -42.6850      1.00000
      8     -42.6850      1.00000
      9      -9.1305      1.00000
     10      -9.1305      1.00000
     11      -9.1305      1.00000
     12      -9.1305      1.00000
     13      -1.1712      1.00000
     14      -1.1712      1.00000
     15      -1.1712      1.00000
     16      -1.1712      1.00000
     17       0.5962      1.00000
     18       0.5962      1.00000
     19       0.5962      1.00000
     20       0.5962      1.00000
     21       0.9413      1.00000
     22       0.9413      1.00000
     23       0.9413      1.00000
     24       0.9413      1.00000
     25       7.7307      0.00000
     26       7.7307      0.00000
     27       7.7307      0.00000
     28       7.7307      0.00000
     29       7.9395      0.00000
     30       7.9395      0.00000
     31       7.9395      0.00000
     32       7.9395      0.00000
     33       8.5009      0.00000
     34       8.5009      0.00000
     35       8.5009      0.00000
     36       8.5009      0.00000
     37      10.0626      0.00000
     38      10.0626      0.00000
     39      10.0626      0.00000
     40      10.0626      0.00000
     41      11.8187      0.00000
     42      11.8187      0.00000
     43      11.8187      0.00000
     44      11.8187      0.00000
     45      13.7926      0.00000
     46      13.7926      0.00000
     47      13.7926      0.00000
     48      13.7926      0.00000
     49      14.8187      0.00000
     50      14.8187      0.00000
     51      14.8187      0.00000
     52      14.8187      0.00000
     53      15.7822      0.00000
     54      15.7822      0.00000
     55      15.7822      0.00000
     56      15.7822      0.00000
     57      16.8739      0.00000
     58      16.8739      0.00000
     59      16.8739      0.00000
     60      16.8739      0.00000
     61      17.3176      0.00000
     62      17.3176      0.00000
     63      17.3176      0.00000
     64      17.3176      0.00000

 k-point    36 :       0.5000    0.5000    0.5000
  band No.  band energies     occupation 
      1     -42.6900      1.00000
      2     -42.6900      1.00000
      3     -42.6900      1.00000
      4     -42.6900      1.00000
      5     -42.6900      1.00000
      6     -42.6900      1.00000
      7     -42.6900      1.00000
      8     -42.6900      1.00000
      9      -9.1248      1.00000
     10      -9.1248      1.00000
     11      -9.1248      1.00000
     12      -9.1248      1.00000
     13      -1.4061      1.00000
     14      -1.4061      1.00000
     15      -1.4061      1.00000
     16      -1.4061      1.00000
     17       0.9594      1.00000
     18       0.9594      1.00000
     19       0.9594      1.00000
     20       0.9594      1.00000
     21       0.9594      1.00000
     22       0.9594      1.00000
     23       0.9594      1.00000
     24       0.9594      1.00000
     25       7.5814      0.00000
     26       7.5814      0.00000
     27       7.5814      0.00000
     28       7.5814      0.00000
     29       8.0416      0.00000
     30       8.0416      0.00000
     31       8.0416      0.00000
     32       8.0416      0.00000
     33       8.0416      0.00000
     34       8.0416      0.00000
     35       8.0416      0.00000
     36       8.0416      0.00000
     37       9.8817      0.00000
     38       9.8817      0.00000
     39       9.8817      0.00000
     40       9.8817      0.00000
     41      14.2691      0.00000
     42      14.2691      0.00000
     43      14.2691      0.00000
     44      14.2691      0.00000
     45      14.2691      0.00000
     46      14.2692      0.00000
     47      14.2692      0.00000
     48      14.2692      0.00000
     49      14.5106      0.00000
     50      14.5106      0.00000
     51      14.5106      0.00000
     52      14.5106      0.00000
     53      14.5106      0.00000
     54      14.5106      0.00000
     55      14.5106      0.00000
     56      14.5106      0.00000
     57      15.3042      0.00000
     58      15.3042      0.00000
     59      15.3042      0.00000
     60      15.3042      0.00000
     61      16.1756      0.00000
     62      16.1756      0.00000
     63      16.1756      0.00000
     64      16.1756      0.00000


--------------------------------------------------------------------------------------------------------


 soft charge-density along one line, spin component           1
         0         1         2         3         4         5         6         7         8         9
 total charge-density along one line
 
 soft charge-density along one line, spin component           2
         0         1         2         3         4         5         6         7         8         9
 total charge-density along one line
 
 pseudopotential strength for first ion, spin component:           1
-39.052   3.357   0.000   0.000   0.000
  3.357  -9.752   0.000   0.000   0.000
  0.000   0.000   0.159  -0.000  -0.000
  0.000   0.000  -0.000   0.159  -0.000
  0.000   0.000  -0.000  -0.000   0.159
 pseudopotential strength for first ion, spin component:           2
-39.052   3.357   0.000   0.000   0.000
  3.357  -9.752   0.000   0.000   0.000
  0.000   0.000   0.159  -0.000  -0.000
  0.000   0.000  -0.000   0.159  -0.000
  0.000   0.000  -0.000  -0.000   0.159
 total augmentation occupancy for first ion, spin component:           1
  2.000   0.001  -0.000  -0.000  -0.000
  0.001   0.727   0.000   0.000   0.000
 -0.000   0.000   0.027   0.000   0.000
 -0.000   0.000   0.000   0.027   0.000
 -0.000   0.000   0.000   0.000   0.027
 total augmentation occupancy for first ion, spin component:           2
  0.000   0.000   0.000  -0.000  -0.000
  0.000   0.000  -0.000  -0.000  -0.000
  0.000  -0.000  -0.000   0.000  -0.000
 -0.000  -0.000   0.000  -0.000  -0.000
 -0.000  -0.000  -0.000  -0.000  -0.000


------------------------ aborting loop because EDIFF is reached ----------------------------------------


    CHARGE:  cpu time      0.0189: real time      0.0190
    FORLOC:  cpu time      0.0002: real time      0.0002
    FORNL :  cpu time      0.1325: real time      0.1333
    STRESS:  cpu time      0.9699: real time      0.9744
    FORCOR:  cpu time      0.0058: real time      0.0058
    FORHAR:  cpu time      0.0008: real time      0.0008
    MIXING:  cpu time      0.0004: real time      0.0004
    OFIELD:  cpu time      0.0000: real time      0.0000

  FORCE on cell =-STRESS in cart. coord.  units (eV):
  Direction    XX          YY          ZZ          XY          YZ          ZX
  --------------------------------------------------------------------------------------
  Alpha Z    42.05240    42.05240    42.05240
  Ewald    -547.51344  -547.51344  -547.51401     0.00000     0.00049     0.00049
  Hartree   153.37422   153.37422   153.37391     0.00000     0.00025     0.00025
  E(xc)    -194.55905  -194.55905  -194.55905     0.00000     0.00000     0.00000
  Local    -335.79362  -335.79363  -335.79273    -0.00001    -0.00075    -0.00075
  n-local   161.99224   161.99224   161.99223     0.00000     0.00000     0.00000
  augment    74.58284    74.58284    74.58248    -0.00000    -0.00012    -0.00012
  Kinetic   645.95947   645.95947   645.95959     0.00000     0.00005     0.00005
  Fock        0.00000     0.00000     0.00000     0.00000     0.00000     0.00000
  -------------------------------------------------------------------------------------
  Total       0.09506     0.09506     0.09482    -0.00000    -0.00008    -0.00008
  in kB       0.82353     0.82354     0.82146    -0.00001    -0.00068    -0.00068
  external pressure =        0.82 kB  Pullay stress =        0.00 kB


 VOLUME and BASIS-vectors are now :
 -----------------------------------------------------------------------------
  energy-cutoff  :      520.00
  volume of cell :      184.93
      direct lattice vectors                 reciprocal lattice vectors
     5.697317939 -0.000000056 -0.000002764     0.175521186  0.000000002  0.000000085
    -0.000000055  5.697317948 -0.000002765     0.000000002  0.175521185  0.000000085
    -0.000002765 -0.000002765  5.697309988     0.000000085  0.000000085  0.175521431

  length of vectors
     5.697317939  5.697317948  5.697309988     0.175521186  0.175521185  0.175521431


 FORCES acting on ions
    electron-ion (+dipol)            ewald-force                    non-local-force                 convergence-correction
 -----------------------------------------------------------------------------------------------
   0.855E-04 0.855E-04 0.132E-05   -.780E-04 -.781E-04 -.116E-05   -.843E-05 -.834E-05 -.954E-07   -.303E-07 -.372E-07 -.204E-07
   -.856E-04 -.856E-04 -.125E-05   0.781E-04 0.781E-04 0.110E-05   0.845E-05 0.833E-05 0.893E-07   0.262E-07 0.432E-07 0.265E-07
   0.855E-04 0.855E-04 0.134E-05   -.780E-04 -.781E-04 -.119E-05   -.844E-05 -.833E-05 -.881E-07   -.321E-07 -.471E-07 -.261E-07
   -.854E-04 -.855E-04 -.137E-05   0.779E-04 0.781E-04 0.122E-05   0.843E-05 0.834E-05 0.991E-07   0.194E-07 0.377E-07 0.230E-07
   0.857E-04 0.855E-04 0.137E-05   -.782E-04 -.780E-04 -.123E-05   -.844E-05 -.833E-05 -.978E-07   -.259E-07 -.324E-07 -.211E-07
   -.856E-04 -.855E-04 -.130E-05   0.781E-04 0.780E-04 0.117E-05   0.843E-05 0.834E-05 0.897E-07   0.194E-07 0.279E-07 0.223E-07
   0.856E-04 0.855E-04 0.126E-05   -.782E-04 -.780E-04 -.112E-05   -.843E-05 -.834E-05 -.932E-07   -.258E-07 -.260E-07 -.252E-07
   -.857E-04 -.855E-04 -.131E-05   0.782E-04 0.780E-04 0.117E-05   0.845E-05 0.832E-05 0.109E-06   0.221E-07 0.356E-07 0.223E-07
   0.124E-07 -.561E-07 -.109E-07   -.371E-07 0.758E-07 0.127E-07   0.124E-07 -.138E-07 0.521E-09   0.111E-07 -.463E-08 -.376E-09
   0.107E-07 0.686E-07 -.836E-11   0.181E-07 -.791E-07 -.440E-08   -.204E-07 0.396E-08 0.442E-08   -.842E-08 0.457E-08 -.751E-09
   0.612E-07 0.872E-07 -.400E-07   -.501E-07 -.102E-06 0.464E-07   -.109E-08 0.713E-08 -.357E-08   -.114E-07 0.538E-08 -.298E-08
   -.101E-06 -.761E-07 0.151E-07   0.906E-07 0.799E-07 -.979E-08   0.154E-07 -.545E-08 -.125E-08   -.191E-08 0.400E-08 -.291E-08
 -----------------------------------------------------------------------------------------------
   0.138E-07 0.154E-08 0.320E-07   -.179E-13 0.268E-15 0.689E-14   0.259E-07 -.126E-07 0.124E-07   -.377E-07 0.111E-07 -.567E-08
 
 
 POSITION                                       TOTAL-FORCE (eV/Angst)
 -----------------------------------------------------------------------------------
      4.27299      1.42433      1.42432        -0.000001     -0.000001      0.000000
      1.42433      4.27299      4.27298         0.000001      0.000001     -0.000000
      4.27299      4.27299      4.27298        -0.000001     -0.000001      0.000000
      1.42433      1.42433      1.42433         0.000001      0.000001     -0.000000
      1.42433      1.42433      4.27298        -0.000001     -0.000001      0.000000
      4.27299      4.27299      1.42432         0.000001      0.000001     -0.000000
      1.42433      4.27299      1.42432        -0.000001     -0.000001      0.000000
      4.27299      1.42433      4.27298         0.000001      0.000001     -0.000000
      0.00000      0.00000     -0.00000        -0.000000      0.000000     -0.000000
     -0.00000      2.84866      2.84865        -0.000000     -0.000000     -0.000000
      2.84866     -0.00000      2.84865        -0.000000     -0.000000     -0.000000
      2.84866      2.84866     -0.00000         0.000000      0.000000     -0.000000
 -----------------------------------------------------------------------------------
    total drift:                                0.000000      0.000000      0.000000


--------------------------------------------------------------------------------------------------------



  FREE ENERGIE OF THE ION-ELECTRON SYSTEM (eV)
  ---------------------------------------------------
  free  energy   TOTEN  =       -47.98229383 eV

  energy  without entropy=      -47.98229383  energy(sigma->0) =      -47.98229383
 
 d Force =-0.1546206E-13[-0.468E-13, 0.159E-13]  d Energy = 0.4573573E-03-0.457E-03
 d Force =-0.1776333E-11[-0.355E-11, 0.442E-21]  d Ewald  =-0.1513725E+01 0.151E+01


--------------------------------------------------------------------------------------------------------


    POTLOK:  cpu time      0.1458: real time      0.1465


--------------------------------------------------------------------------------------------------------


 stress matrix after NEB project (eV)
      0.09506     -0.00000     -0.00008
     -0.00000      0.09506     -0.00008
     -0.00008     -0.00008      0.09482
  FORCES: max atom, RMS     0.000001    0.000001
  FORCE total and by dimension    0.000004    0.000001
  Stress total and by dimension    0.164505    0.095057
 Steepest descent step on ions:
 trial-energy change:   -0.000457  1 .order   -0.000448   -0.000634   -0.000263
  (g-gl).g = 0.634E-03      g.g   = 0.634E-03  gl.gl    = 0.000E+00
 g(Force)  = 0.159E-13   g(Stress)= 0.634E-03 ortho     = 0.000E+00
 gamma     =   0.00000
 trial     =   1.00000
 opt step  =   1.57355  (harmonic =   1.70742) maximal distance =0.00000002
 next E    =   -47.982371   (d E  =  -0.00053)


--------------------------------------------------------------------------------------------------------


  
 reached required accuracy - stopping structural energy minimisation
 writing wavefunctions
     LOOP+:  cpu time     27.3378: real time     27.5066
    4ORBIT:  cpu time      0.0000: real time      0.0000

 total amount of memory used by VASP MPI-rank0    63685. kBytes
=======================================================================

   base      :      30000. kBytes
   nonl-proj :      23961. kBytes
   fftplans  :        763. kBytes
   grid      :       2990. kBytes
   one-center:         73. kBytes
   wavefun   :       5898. kBytes
 
  
  
 General timing and accounting informations for this job:
 ========================================================
  
                  Total CPU time used (sec):       52.526
                            User time (sec):       51.837
                          System time (sec):        0.690
                         Elapsed time (sec):       54.573
  
                   Maximum memory used (kb):      561036.
                   Average memory used (kb):          N/A
  
                          Minor page faults:        83915
                          Major page faults:          936
                 Voluntary context switches:         5955
